unary undecane system
79486
    1UDC     C1    1  13.645   9.862   7.113  0.1365 -0.1535  0.0878
    1UDC     C2    2  13.609   9.722   7.065  1.0410 -0.0526  0.6319
    1UDC     C3    3  13.594   9.718   6.912  0.0701  0.0174  0.7059
    1UDC     C4    4  13.529   9.840   6.845  1.2384  0.2404 -0.5883
    1UDC     C5    5  13.376   9.836   6.850 -0.6611 -0.5430  1.6593
    1UDC     C6    6  13.300   9.718   6.785 -0.6197 -0.2760 -0.5187
    1UDC     C7    7  13.154   9.766   6.762 -0.7398 -1.1760 -0.0512
    1UDC     C8    8  13.074   9.789   6.888  0.9900  0.0667 -0.4968
    1UDC     C9    9  12.980   9.919   6.877 -0.2014 -0.1715  1.1154
    1UDC    C10   10  13.011   9.995   7.006  1.8709 -0.3446  0.1749
    1UDC    C11   11  13.153  10.021   7.049 -0.4661 -0.1412  1.0604
    2UDC     C1   12   4.327  10.839  12.725 -0.8591 -0.6162  0.0358
    2UDC     C2   13   4.420  10.872  12.613 -0.3164 -0.2806 -1.0214
    2UDC     C3   14   4.518  10.762  12.556 -0.4394  1.1738 -0.4317
    2UDC     C4   15   4.502  10.770  12.404 -0.4721  1.2749  0.1957
    2UDC     C5   16   4.560  10.908  12.351 -0.6140 -0.0169  0.3490
    2UDC     C6   17   4.636  10.879  12.221  0.0212 -0.1180 -0.1670
    2UDC     C7   18   4.683  11.004  12.149 -1.4888 -0.8340 -0.0999
    2UDC     C8   19   4.743  11.028  12.013  0.4105  0.5944 -0.5107
    2UDC     C9   20   4.901  11.011  12.016 -0.1887 -0.7749  0.6247
    2UDC    C10   21   4.953  10.937  11.898  0.4313 -0.8185 -0.5800
    2UDC    C11   22   5.091  10.889  11.946  0.6072  0.0176 -0.0489
    3UDC     C1   23  12.064  12.907   5.302  1.3998 -0.0826  0.8900
    3UDC     C2   24  12.148  13.032   5.327  0.3869 -0.2872  0.0065
    3UDC     C3   25  12.226  13.060   5.202  0.3590  0.3128  0.4901
    3UDC     C4   26  12.158  13.151   5.101  0.4568 -0.0924 -1.3952
    3UDC     C5   27  12.170  13.305   5.132  0.3421 -1.0954 -0.8117
    3UDC     C6   28  12.032  13.378   5.129  0.0781 -0.5237  0.5914
    3UDC     C7   29  11.936  13.345   5.249 -1.1407  0.4520 -0.8908
    3UDC     C8   30  12.000  13.387   5.383 -1.0513 -0.4141  0.1216
    3UDC     C9   31  12.091  13.505   5.401 -0.7184 -0.6169 -0.0489
    3UDC    C10   32  12.157  13.554   5.539  0.3746  0.9320 -0.3685
    3UDC    C11   33  12.250  13.666   5.517 -0.9321 -0.5250 -0.1684
    4UDC     C1   34  11.228   7.178   1.209 -0.3152  0.0632  0.4780
    4UDC     C2   35  11.235   7.053   1.297 -0.9205 -0.2505 -0.5652
    4UDC     C3   36  11.141   6.946   1.244  0.5856 -1.0595  0.5274
    4UDC     C4   37  11.182   6.956   1.094  0.2333  0.6148 -0.7862
    4UDC     C5   38  11.186   6.820   1.028  0.4073  0.0876  0.4160
    4UDC     C6   39  11.227   6.810   0.874  0.3820 -0.6283 -0.1535
    4UDC     C7   40  11.109   6.834   0.781  0.8327  0.1734  0.0092
    4UDC     C8   41  11.151   6.836   0.629  0.0984 -0.4491  0.2512
    4UDC     C9   42  11.035   6.759   0.563  0.0849 -0.9026  0.1094
    4UDC    C10   43  11.025   6.779   0.413 -0.3097 -0.3696  0.0791
    4UDC    C11   44  10.928   6.688   0.343  0.0942 -0.1900  0.3923
    5UDC     C1   45   4.538  15.428  18.743  0.3413 -0.9516  0.6844
    5UDC     C2   46   4.500  15.563  18.681  0.3012 -0.5460 -0.2527
    5UDC     C3   47   4.341  15.578  18.668 -0.5957 -0.1649  0.2617
    5UDC     C4   48   4.292  15.611  18.805  0.3070 -0.4851 -1.0525
    5UDC     C5   49   4.139  15.635  18.802 -0.2140 -0.4269  0.9792
    5UDC     C6   50   4.103  15.767  18.729 -0.1822 -0.0801 -0.2766
    5UDC     C7   51   3.955  15.810  18.763 -0.0676  0.6149 -0.1608
    5UDC     C8   52   3.833  15.740  18.704  0.6908  0.6424  0.3744
    5UDC     C9   53   3.702  15.814  18.745  0.6646  0.6520 -0.1870
    5UDC    C10   54   3.580  15.772  18.661  0.2780 -0.3536 -0.1080
    5UDC    C11   55   3.501  15.903  18.648 -0.7704  0.7007 -0.0195
    6UDC     C1   56  15.402  12.914   9.879  0.4654 -0.8461  0.2443
    6UDC     C2   57  15.551  12.870   9.871 -0.2748  0.1147  0.0303
    6UDC     C3   58  15.572  12.730   9.939 -0.3028 -1.0994 -0.0216
    6UDC     C4   59  15.667  12.636   9.863  0.3113  0.4004  0.3125
    6UDC     C5   60  15.797  12.703   9.812 -1.0792 -0.5829 -0.5853
    6UDC     C6   61  15.890  12.609   9.724 -0.0857  1.3810  1.1474
    6UDC     C7   62  15.866  12.460   9.779  0.1728 -0.2433  0.2543
    6UDC     C8   63  15.973  12.342   9.767 -0.2792  0.5777 -0.1073
    6UDC     C9   64  16.120  12.376   9.703  0.4314  1.3062  0.3408
    6UDC    C10   65  16.229  12.312   9.782  0.4036  0.3825  0.4780
    6UDC    C11   66  16.261  12.397   9.912  0.7909  0.8112  0.6923
    7UDC     C1   67  11.630  15.839  14.094 -0.3378 -0.9463  0.4959
    7UDC     C2   68  11.639  15.943  14.206  1.3434 -0.3573 -0.4095
    7UDC     C3   69  11.543  15.921  14.334 -1.0347  0.7608  0.1604
    7UDC     C4   70  11.617  15.835  14.437  0.6367  0.8038 -1.1009
    7UDC     C5   71  11.581  15.858  14.584 -0.1190 -0.7274  0.3650
    7UDC     C6   72  11.429  15.878  14.636 -0.8661 -0.1992 -0.5362
    7UDC     C7   73  11.453  15.921  14.779 -0.0834  1.3999  0.0411
    7UDC     C8   74  11.320  15.938  14.856 -0.9532 -0.1734  1.1723
    7UDC     C9   75  11.274  16.079  14.904 -0.3468 -0.3567  0.9794
    7UDC    C10   76  11.334  16.122  15.038  0.5797 -1.4986 -0.8392
    7UDC    C11   77  11.484  16.140  15.046 -0.1934 -0.1529 -0.6639
    8UDC     C1   78   3.477  11.615  19.617  0.7324 -0.3616  0.1637
    8UDC     C2   79   3.463  11.575  19.471  0.0972 -0.2788  0.0180
    8UDC     C3   80   3.501  11.422  19.460  0.6509  0.2160 -0.0562
    8UDC     C4   81   3.450  11.344  19.581 -0.0628  0.4229 -0.0047
    8UDC     C5   82   3.522  11.212  19.596 -0.8109  0.1601  0.0357
    8UDC     C6   83   3.437  11.096  19.644 -1.0807 -0.8761  0.6931
    8UDC     C7   84   3.489  10.947  19.639  0.6347 -0.6045 -0.1412
    8UDC     C8   85   3.597  10.896  19.730 -0.1330 -0.6342 -1.5503
    8UDC     C9   86   3.605  10.743  19.725 -0.8367 -0.2213  1.2746
    8UDC    C10   87   3.485  10.660  19.777  0.9558  0.8056 -0.0918
    8UDC    C11   88   3.496  10.574  19.906 -0.4577 -0.5399  0.6134
    9UDC     C1   89  11.147  11.298  11.915  1.2149  0.0949 -0.4499
    9UDC     C2   90  11.197  11.430  11.977 -0.4113  0.2126 -1.0419
    9UDC     C3   91  11.183  11.535  11.862 -0.4696 -0.1285  0.6169
    9UDC     C4   92  11.258  11.513  11.724  0.1644 -0.8447  0.4644
    9UDC     C5   93  11.265  11.638  11.639 -0.4960  0.1509 -1.0825
    9UDC     C6   94  11.141  11.720  11.595 -1.4295  0.0776  0.2443
    9UDC     C7   95  11.203  11.857  11.546  0.2580  0.9500  1.6051
    9UDC     C8   96  11.345  11.864  11.492 -1.0515 -0.6232 -0.3265
    9UDC     C9   97  11.406  11.993  11.424  0.4748  0.2033  0.5182
    9UDC    C10   98  11.557  12.007  11.415 -0.8203  0.3074  0.0197
    9UDC    C11   99  11.608  12.099  11.522 -1.0301 -0.9902 -0.1081
   10UDC     C1  100  19.211  11.254   5.754 -0.0293 -1.4135 -0.9329
   10UDC     C2  101  19.097  11.345   5.804 -0.9203  0.4983  0.4628
   10UDC     C3  102  19.123  11.496   5.796  0.3162  0.7562  0.0108
   10UDC     C4  103  18.995  11.562   5.728  0.2550  0.5464  0.7711
   10UDC     C5  104  19.022  11.712   5.710 -0.7438  0.2521 -0.4193
   10UDC     C6  105  19.138  11.732   5.616  0.3561  0.3838 -0.0527
   10UDC     C7  106  19.200  11.872   5.558 -0.4631 -0.1628 -0.6621
   10UDC     C8  107  19.323  11.843   5.465 -0.0299  0.6973 -0.0920
   10UDC     C9  108  19.291  11.757   5.337 -0.0198 -0.5075  0.0273
   10UDC    C10  109  19.401  11.670   5.288 -0.5796 -0.3563 -0.5295
   10UDC    C11  110  19.357  11.542   5.362 -0.7117 -0.1785  0.0196
   11UDC     C1  111  13.320  13.730  12.754  0.1232 -0.2452  0.1637
   11UDC     C2  112  13.353  13.589  12.694 -0.3696  0.3332 -0.3160
   11UDC     C3  113  13.252  13.574  12.578 -0.1746 -0.6234  0.5558
   11UDC     C4  114  13.251  13.436  12.515  0.3366 -0.7962  1.1536
   11UDC     C5  115  13.157  13.445  12.391  0.8345  0.6391  0.1106
   11UDC     C6  116  13.207  13.543  12.292 -0.4924  1.0061  0.0412
   11UDC     C7  117  13.312  13.499  12.188  0.0273 -1.6797  0.1871
   11UDC     C8  118  13.339  13.353  12.178 -0.4805  0.1893 -0.6208
   11UDC     C9  119  13.453  13.315  12.078 -0.1649 -0.0688  0.7831
   11UDC    C10  120  13.424  13.302  11.922 -0.8185 -0.4725 -0.9202
   11UDC    C11  121  13.297  13.223  11.878 -0.3560  0.4059  0.8391
   12UDC     C1  122  15.040  10.545  10.921  0.0260 -0.9088 -1.0376
   12UDC     C2  123  14.914  10.630  10.942  0.0943  0.2762  0.2025
   12UDC     C3  124  14.819  10.593  11.057  0.4725 -0.7532 -0.0513
   12UDC     C4  125  14.694  10.675  11.106 -0.4692  0.8266  0.3981
   12UDC     C5  126  14.736  10.801  11.180  0.5463 -0.1654 -0.0098
   12UDC     C6  127  14.840  10.780  11.293  1.1782  0.4379  0.2015
   12UDC     C7  128  14.896  10.910  11.351  0.0652 -0.5203 -0.4709
   12UDC     C8  129  14.977  10.990  11.239  0.5764  0.2606 -0.8527
   12UDC     C9  130  15.090  10.913  11.161  0.1444  0.0085  0.6795
   12UDC    C10  131  15.222  10.873  11.237  0.7966 -0.0949 -0.7670
   12UDC    C11  132  15.319  10.770  11.185  0.1226  0.4886  0.4347
   13UDC     C1  133   6.629   7.890  12.447  0.1485 -0.5253 -0.1081
   13UDC     C2  134   6.491   7.826  12.486  1.1192 -1.1703 -0.7142
   13UDC     C3  135   6.357   7.897  12.444  0.7903  0.0213 -0.8577
   13UDC     C4  136   6.297   7.842  12.311 -0.2071 -0.2731  0.3483
   13UDC     C5  137   6.159   7.897  12.303 -0.5593  0.9367  0.0785
   13UDC     C6  138   6.100   7.854  12.165 -0.2960 -0.0908 -0.5695
   13UDC     C7  139   5.952   7.894  12.145  0.4968  0.5642  1.0524
   13UDC     C8  140   5.943   8.028  12.067  0.2762 -0.0268  1.0770
   13UDC     C9  141   5.811   8.087  12.014  0.0066  0.3765 -0.5175
   13UDC    C10  142   5.822   8.204  11.910  0.8188 -0.3313 -0.1152
   13UDC    C11  143   5.697   8.192  11.816 -0.7164  0.0588  0.2370
   14UDC     C1  144  13.972   9.026   6.859  0.2032 -0.6007 -0.0181
   14UDC     C2  145  13.852   8.948   6.814  0.7370 -0.1392  0.2740
   14UDC     C3  146  13.898   8.819   6.749  0.5580  0.2833 -0.3000
   14UDC     C4  147  13.784   8.759   6.660  0.5512 -0.6806 -0.1009
   14UDC     C5  148  13.634   8.741   6.697 -0.7458 -1.5124  0.1887
   14UDC     C6  149  13.562   8.669   6.585  0.5991  1.0072  0.8718
   14UDC     C7  150  13.621   8.526   6.563 -0.0389 -0.2749 -0.4839
   14UDC     C8  151  13.543   8.443   6.458  0.1394 -0.0537 -0.8505
   14UDC     C9  152  13.602   8.486   6.323 -0.6276 -1.1061 -0.9157
   14UDC    C10  153  13.611   8.381   6.210 -0.9593 -0.2119  0.1327
   14UDC    C11  154  13.661   8.441   6.073 -1.2600 -0.0984 -1.0612
   15UDC     C1  155   9.938  19.324  11.748  0.2909 -0.6535 -0.2138
   15UDC     C2  156  10.023  19.275  11.868  0.3106 -1.1408 -0.1194
   15UDC     C3  157   9.995  19.348  11.999 -1.0498  0.5089  0.2793
   15UDC     C4  158  10.046  19.265  12.125 -0.2739 -1.0329 -0.0673
   15UDC     C5  159  10.187  19.274  12.175  0.2481  0.2819 -0.0588
   15UDC     C6  160  10.233  19.144  12.242 -1.0965  0.5278 -0.3205
   15UDC     C7  161  10.388  19.164  12.266  0.1603 -0.1261 -0.3940
   15UDC     C8  162  10.474  19.039  12.248 -0.0362 -1.1233  0.9079
   15UDC     C9  163  10.624  19.065  12.271  0.2736 -1.0459  0.1314
   15UDC    C10  164  10.633  19.125  12.411  0.7517 -0.7758 -0.9148
   15UDC    C11  165  10.632  19.015  12.518  0.7979  0.0706  0.9992
   16UDC     C1  166  18.260  13.544  10.974 -0.2006  0.0735  0.4505
   16UDC     C2  167  18.248  13.694  10.981  0.0050 -0.2830 -0.7925
   16UDC     C3  168  18.365  13.788  11.035  0.4699  0.2903 -0.0762
   16UDC     C4  169  18.320  13.932  11.067  0.0071 -0.0919 -0.1468
   16UDC     C5  170  18.389  14.024  10.959 -0.0687 -0.3207  0.7785
   16UDC     C6  171  18.347  14.020  10.810 -0.4546 -0.3953  0.1290
   16UDC     C7  172  18.400  14.146  10.750 -0.0153  0.5330  0.0946
   16UDC     C8  173  18.509  14.136  10.642 -0.5911  0.8741  0.5772
   16UDC     C9  174  18.545  14.265  10.565  0.8467  0.6304  0.2942
   16UDC    C10  175  18.635  14.236  10.431 -0.0773 -1.1099 -0.1164
   16UDC    C11  176  18.677  14.368  10.360 -0.4033 -0.0862 -0.7395
   17UDC     C1  177  13.894   9.619   4.512 -0.0186 -0.2832 -0.1571
   17UDC     C2  178  13.807   9.718   4.431 -0.9203 -0.6836  0.0695
   17UDC     C3  179  13.750   9.673   4.293  0.8952 -1.3707  0.3478
   17UDC     C4  180  13.641   9.761   4.233  0.3239  0.1251 -0.1482
   17UDC     C5  181  13.610   9.750   4.082 -1.4768 -1.0020 -0.0676
   17UDC     C6  182  13.701   9.828   3.981  0.1580  0.0488  0.6908
   17UDC     C7  183  13.726   9.745   3.856  1.0712  0.1261 -0.4101
   17UDC     C8  184  13.756   9.600   3.900 -0.6070  0.1035  0.4808
   17UDC     C9  185  13.906   9.567   3.942  0.5207  0.6797 -0.1948
   17UDC    C10  186  13.930   9.417   3.956 -0.5819 -0.6411 -0.0192
   17UDC    C11  187  13.868   9.334   3.834 -0.3787  0.1222  0.0032
   18UDC     C1  188   2.697   5.793   4.180 -0.1319  1.2682  0.2457
   18UDC     C2  189   2.657   5.677   4.265 -0.2137  0.3554  0.3222
   18UDC     C3  190   2.530   5.606   4.219  0.6532  1.2625  0.1460
   18UDC     C4  191   2.410   5.567   4.314  0.1059  0.3826 -0.4752
   18UDC     C5  192   2.408   5.438   4.395 -0.6755  1.3186 -1.0710
   18UDC     C6  193   2.463   5.311   4.324 -0.8779  1.3511 -0.1108
   18UDC     C7  194   2.409   5.180   4.389  0.0193 -0.9088  1.1695
   18UDC     C8  195   2.425   5.064   4.295 -0.4185  0.3304 -1.1471
   18UDC     C9  196   2.556   5.062   4.232 -0.3525  0.5635  0.3347
   18UDC    C10  197   2.559   4.991   4.089 -0.3426 -0.2943  0.0963
   18UDC    C11  198   2.701   4.993   4.024 -0.5913  0.3865 -0.9690
   19UDC     C1  199   7.513  13.730  17.981  0.4342 -0.2157  0.7637
   19UDC     C2  200   7.579  13.613  18.068  0.2568 -0.1639  0.8292
   19UDC     C3  201   7.723  13.596  18.020  0.7958  0.1246 -0.1082
   19UDC     C4  202   7.705  13.516  17.886 -0.6544 -0.2411 -0.4349
   19UDC     C5  203   7.839  13.452  17.849  0.8044 -0.0296 -0.0716
   19UDC     C6  204   7.843  13.367  17.720  0.1549 -0.1864 -0.3424
   19UDC     C7  205   7.920  13.434  17.615 -0.2166  0.9407  0.8892
   19UDC     C8  206   8.069  13.468  17.612  0.7869 -0.2844  0.2509
   19UDC     C9  207   8.119  13.455  17.468  0.4351 -0.3627 -0.0268
   19UDC    C10  208   8.273  13.454  17.459 -0.9621 -0.4513 -0.7441
   19UDC    C11  209   8.349  13.318  17.475  0.1918 -0.9346 -0.7140
   20UDC     C1  210   6.165  18.235   0.270  0.0081  0.0823  0.4785
   20UDC     C2  211   6.250  18.169   0.384 -0.5996 -0.1559  0.4075
   20UDC     C3  212   6.271  18.273   0.501 -0.1126 -0.6631  0.0248
   20UDC     C4  213   6.278  18.196   0.633 -0.5774 -0.4036  0.0360
   20UDC     C5  214   6.136  18.178   0.691  0.5222 -0.7362  0.6501
   20UDC     C6  215   6.109  18.050   0.770  0.1333  0.3312 -0.7354
   20UDC     C7  216   6.142  18.033   0.916 -0.4734 -0.4639  0.4993
   20UDC     C8  217   6.102  17.924   1.010 -1.1485  1.7148  0.6412
   20UDC     C9  218   6.181  17.788   0.994  0.8759  0.9095  0.0166
   20UDC    C10  219   6.066  17.680   1.011  0.8448 -1.0107  0.2577
   20UDC    C11  220   6.138  17.544   1.037  0.5564  1.6663  0.7122
   21UDC     C1  221  16.772  17.859  12.680  0.2035 -0.0731 -0.0964
   21UDC     C2  222  16.664  17.831  12.573 -0.0713  0.0248 -0.0179
   21UDC     C3  223  16.672  17.934  12.455  0.6128  0.3251 -0.0287
   21UDC     C4  224  16.653  17.865  12.314  0.0816 -0.6977 -0.2729
   21UDC     C5  225  16.577  17.951  12.224  0.6340  0.2887  0.3613
   21UDC     C6  226  16.531  17.892  12.088  0.1195 -0.1260  0.4218
   21UDC     C7  227  16.403  17.954  12.025 -1.0806 -0.6699 -1.0209
   21UDC     C8  228  16.291  17.962  12.129 -0.6566 -1.0394  0.4909
   21UDC     C9  229  16.230  17.832  12.191 -1.0921 -0.1658 -0.0526
   21UDC    C10  230  16.101  17.861  12.268 -0.3985 -0.4132  0.4582
   21UDC    C11  231  16.045  17.752  12.359 -0.0939 -0.2098  0.1226
   22UDC     C1  232  11.948   6.932   3.488 -0.2393 -1.0371 -0.5212
   22UDC     C2  233  12.079   6.857   3.468 -0.3268  0.0547  0.5925
   22UDC     C3  234  12.180   6.944   3.402  0.5504 -0.6010  0.6131
   22UDC     C4  235  12.180   7.089   3.466  1.0471 -0.2263  0.2376
   22UDC     C5  236  12.326   7.137   3.462 -0.1309  0.2890 -0.0179
   22UDC     C6  237  12.395   7.168   3.590 -0.4965 -0.9317 -0.0482
   22UDC     C7  238  12.553   7.182   3.560  1.6261  0.5577  0.5772
   22UDC     C8  239  12.617   7.308   3.621  0.6072  0.9724  0.7331
   22UDC     C9  240  12.629   7.420   3.517  0.7292 -0.5011 -0.1843
   22UDC    C10  241  12.634   7.356   3.389  0.4059  0.6151  1.4266
   22UDC    C11  242  12.613   7.465   3.280  0.7674 -0.9536 -0.3256
   23UDC     C1  243  13.660   9.892  15.641  0.2000  1.2236  0.6973
   23UDC     C2  244  13.761   9.979  15.568  0.4929  0.4958 -0.1183
   23UDC     C3  245  13.867   9.914  15.475  0.8223  0.6161 -0.1499
   23UDC     C4  246  13.977   9.821  15.539 -0.4440  0.3055 -1.3775
   23UDC     C5  247  14.069   9.786  15.423  0.5089  0.3161  0.8235
   23UDC     C6  248  14.140   9.657  15.443  0.2764 -0.5858  0.3747
   23UDC     C7  249  14.287   9.661  15.410 -0.0639 -0.3658 -0.5195
   23UDC     C8  250  14.352   9.566  15.507  0.7200  0.1000 -0.7149
   23UDC     C9  251  14.246   9.504  15.600 -0.1561 -0.8406  0.3726
   23UDC    C10  252  14.322   9.433  15.710  0.1949  0.5322  0.5192
   23UDC    C11  253  14.230   9.338  15.783 -0.0753 -0.3331 -0.1680
   24UDC     C1  254  17.487   0.365   1.581  0.2269  0.6384 -0.2245
   24UDC     C2  255  17.545   0.228   1.539  0.2640 -0.7347 -0.1528
   24UDC     C3  256  17.596   0.229   1.392 -0.6245 -0.0365 -1.1810
   24UDC     C4  257  17.728   0.305   1.382  0.3567  0.9766 -0.3759
   24UDC     C5  258  17.735   0.363   1.237 -0.6443 -1.1486 -0.1873
   24UDC     C6  259  17.864   0.433   1.207  0.3056 -0.1991 -0.0472
   24UDC     C7  260  17.943   0.363   1.095 -0.9186 -0.4091 -0.5654
   24UDC     C8  261  18.043   0.273   1.171 -0.3903  0.3734  0.5741
   24UDC     C9  262  18.175   0.344   1.196 -0.6761 -0.1564 -0.8705
   24UDC    C10  263  18.277   0.371   1.084  0.3776  1.7140  0.1610
   24UDC    C11  264  18.397   0.452   1.133 -0.5391 -0.2499  0.6389
   25UDC     C1  265   5.578  16.155   9.487  0.0181  0.0755 -0.3321
   25UDC     C2  266   5.595  16.178   9.334  0.6417  0.0107  0.6778
   25UDC     C3  267   5.685  16.281   9.262 -0.1100 -0.8504  0.9794
   25UDC     C4  268   5.616  16.383   9.159 -0.2277 -0.0179 -0.0948
   25UDC     C5  269   5.693  16.500   9.109 -0.1829 -0.3418 -0.6270
   25UDC     C6  270   5.598  16.585   9.031  0.7117 -0.3349  0.6556
   25UDC     C7  271   5.676  16.691   8.957  0.2965  0.6280  0.1628
   25UDC     C8  272   5.791  16.655   8.867 -0.5987  0.4226  0.1798
   25UDC     C9  273   5.858  16.774   8.807  1.0555 -0.3961  0.0334
   25UDC    C10  274   5.992  16.771   8.731  0.3258 -0.1635 -0.8819
   25UDC    C11  275   5.951  16.701   8.594  0.7166  0.0958 -0.1539
   26UDC     C1  276  13.023  11.371  17.494 -0.2015  0.0904  0.9079
   26UDC     C2  277  12.893  11.343  17.566  0.6314 -0.3221 -0.0203
   26UDC     C3  278  12.777  11.297  17.484  0.2352  0.2050 -0.3301
   26UDC     C4  279  12.677  11.396  17.425  0.6091 -0.9357 -0.7111
   26UDC     C5  280  12.577  11.313  17.351 -1.2394  0.6072 -0.5867
   26UDC     C6  281  12.435  11.382  17.297  0.0488  0.2325 -0.5852
   26UDC     C7  282  12.440  11.527  17.248  0.1368  0.6998  0.2286
   26UDC     C8  283  12.313  11.610  17.248  0.1114 -0.6921  0.1600
   26UDC     C9  284  12.231  11.577  17.123 -0.8273  0.4734 -0.6367
   26UDC    C10  285  12.276  11.634  16.992 -0.6332  0.0733 -0.0925
   26UDC    C11  286  12.168  11.614  16.881 -0.2819  1.1464 -0.0122
   27UDC     C1  287  10.230   6.751   9.814 -0.2957  0.5873 -0.6031
   27UDC     C2  288  10.327   6.843   9.893  0.8583  0.8628 -0.4196
   27UDC     C3  289  10.322   6.836  10.051  0.0920  1.1645  0.3755
   27UDC     C4  290  10.327   6.681  10.067 -0.6872 -0.2895  0.5890
   27UDC     C5  291  10.321   6.632  10.212 -0.6546  0.6097  0.5770
   27UDC     C6  292  10.341   6.482  10.235 -0.8068 -0.1257  0.1900
   27UDC     C7  293  10.386   6.463  10.381  0.5501 -0.5511 -0.2143
   27UDC     C8  294  10.500   6.567  10.398 -0.3441  0.1306 -0.0715
   27UDC     C9  295  10.633   6.510  10.460  1.0625  0.5880 -0.3045
   27UDC    C10  296  10.605   6.458  10.606 -0.4607  0.6530 -0.2579
   27UDC    C11  297  10.667   6.512  10.732 -1.2539  0.3409  0.9642
   28UDC     C1  298  15.727   6.516   8.626 -0.8853 -0.1942  0.5395
   28UDC     C2  299  15.671   6.403   8.531 -0.6859  1.4416 -0.2092
   28UDC     C3  300  15.780   6.393   8.420  0.7064 -1.2993 -0.3581
   28UDC     C4  301  15.902   6.329   8.474 -1.0281  0.4777  0.2994
   28UDC     C5  302  16.025   6.365   8.397  0.3818  0.8150  0.0165
   28UDC     C6  303  16.153   6.347   8.471  0.3706 -0.6802 -0.9428
   28UDC     C7  304  16.275   6.382   8.385  0.6051 -0.0290 -0.1528
   28UDC     C8  305  16.412   6.350   8.449  1.1434  1.6773 -1.0429
   28UDC     C9  306  16.387   6.376   8.599  1.0219 -0.7606  0.2797
   28UDC    C10  307  16.448   6.283   8.695 -0.1051 -0.4549 -0.2994
   28UDC    C11  308  16.373   6.147   8.709 -0.1569  0.0233  0.5893
   29UDC     C1  309  18.303  18.390  13.771  0.1638  0.4342 -0.8310
   29UDC     C2  310  18.353  18.309  13.899 -0.9179 -1.2825  0.2793
   29UDC     C3  311  18.244  18.261  14.003 -0.0379 -0.2660  0.5722
   29UDC     C4  312  18.312  18.186  14.121 -0.4658 -0.5620 -0.2641
   29UDC     C5  313  18.193  18.169  14.216  0.4291 -0.5302 -1.2170
   29UDC     C6  314  18.251  18.122  14.354 -0.2143 -0.4893  0.1647
   29UDC     C7  315  18.221  17.975  14.386 -0.0382 -0.3399 -0.0533
   29UDC     C8  316  18.073  17.959  14.397  0.4961  0.1544 -0.0155
   29UDC     C9  317  18.004  18.039  14.508 -0.0465 -0.0178 -0.5483
   29UDC    C10  318  17.849  18.054  14.543 -0.1291 -0.3434  0.4491
   29UDC    C11  319  17.766  18.134  14.442 -0.6080 -0.8287  0.5561
   30UDC     C1  320   6.514   4.523   6.449  0.2521  0.3053 -0.2587
   30UDC     C2  321   6.508   4.662   6.377 -0.5064  0.2057 -0.2044
   30UDC     C3  322   6.367   4.709   6.380  0.2943  1.4509 -0.8139
   30UDC     C4  323   6.354   4.862   6.413  0.4819 -0.0902  0.5464
   30UDC     C5  324   6.207   4.903   6.424 -0.9109  0.9222 -1.5733
   30UDC     C6  325   6.165   4.836   6.562 -0.0131 -0.0225  0.0665
   30UDC     C7  326   6.019   4.879   6.590  0.1743 -0.9271 -0.4093
   30UDC     C8  327   5.976   4.866   6.736  0.6535  0.9102  0.4304
   30UDC     C9  328   5.855   4.951   6.766 -0.2329 -1.8126  0.5820
   30UDC    C10  329   5.879   5.084   6.703  0.5274  0.4061  0.1124
   30UDC    C11  330   5.747   5.145   6.655  0.0469  0.5480  0.5373
   31UDC     C1  331   8.330  19.619   9.794  1.0466 -1.0596  0.3501
   31UDC     C2  332   8.427  19.727   9.825 -0.3591  0.2516 -1.2327
   31UDC     C3  333   8.356  19.826   9.919  0.1119  0.6243 -0.4698
   31UDC     C4  334   8.440  19.901  10.025  0.2687 -0.0190  0.7218
   31UDC     C5  335   8.510  20.029   9.972  0.2983 -1.0304  0.6489
   31UDC     C6  336   8.660  20.005   9.967 -0.5123 -1.3584 -0.3023
   31UDC     C7  337   8.704  19.861   9.922  0.3986 -0.7426  0.0793
   31UDC     C8  338   8.852  19.853   9.872  0.5789  0.3035 -0.0790
   31UDC     C9  339   8.892  19.710   9.836 -0.6246 -0.1179 -0.6717
   31UDC    C10  340   9.044  19.682   9.839 -0.8860 -0.3629 -0.4966
   31UDC    C11  341   9.094  19.539   9.875  0.8981 -0.7009  0.1832
   32UDC     C1  342   0.734  14.969   2.716  0.0258 -0.8249  0.4199
   32UDC     C2  343   0.581  14.970   2.710 -0.4683  0.1591 -0.1176
   32UDC     C3  344   0.502  14.863   2.635  1.1723 -1.0667  0.0750
   32UDC     C4  345   0.473  14.909   2.488  0.5998 -0.5475 -1.0546
   32UDC     C5  346   0.391  15.042   2.479 -0.9094  0.0658  0.5218
   32UDC     C6  347   0.366  15.086   2.333  0.3194 -0.3566 -0.8138
   32UDC     C7  348   0.260  15.026   2.245  0.9268 -0.2942 -0.7796
   32UDC     C8  349   0.288  15.064   2.102 -0.2583 -0.7967  0.5992
   32UDC     C9  350   0.286  15.210   2.058  0.3107  0.3618 -2.0436
   32UDC    C10  351   0.143  15.268   2.102 -0.0385 -0.4685  0.3363
   32UDC    C11  352   0.122  15.403   2.030 -0.6563 -0.1132 -0.9524
   33UDC     C1  353  19.016  14.150   0.253 -0.4580  0.0381 -0.5999
   33UDC     C2  354  18.906  14.047   0.286  0.2860  0.2768  0.7260
   33UDC     C3  355  18.896  13.959   0.154  0.1238  0.3489  0.7101
   33UDC     C4  356  19.004  13.847   0.132  0.2374 -0.1475 -0.0818
   33UDC     C5  357  19.000  13.791  -0.009  0.4406  0.6854 -0.0716
   33UDC     C6  358  19.066  13.878  -0.121  0.1367  0.2228 -0.0863
   33UDC     C7  359  19.197  13.935  -0.094 -0.2765  0.1049 -0.3580
   33UDC     C8  360  19.291  13.899  -0.211  0.1577 -0.1436 -0.5457
   33UDC     C9  361  19.446  13.910  -0.182  0.7246 -0.2626  0.2766
   33UDC    C10  362  19.532  13.924  -0.312  0.6945  0.2050  0.4537
   33UDC    C11  363  19.690  13.962  -0.308  0.1171  1.0168 -0.3340
   34UDC     C1  364   3.873   9.334  10.976  1.1518 -0.0383  0.1880
   34UDC     C2  365   3.743   9.260  10.927 -0.1492 -0.0051  0.2480
   34UDC     C3  366   3.718   9.159  11.027 -0.0969 -0.8227  0.0810
   34UDC     C4  367   3.567   9.127  11.030  0.5622  0.1545 -0.4188
   34UDC     C5  368   3.558   8.973  11.051  0.5966 -0.6623  0.3642
   34UDC     C6  369   3.626   8.930  11.182 -0.6883 -0.3721 -0.3834
   34UDC     C7  370   3.692   8.796  11.158  0.6754 -0.7063  0.1425
   34UDC     C8  371   3.829   8.796  11.232 -0.5081  0.3063 -0.4898
   34UDC     C9  372   3.807   8.756  11.378  0.7401  0.4989 -0.1888
   34UDC    C10  373   3.940   8.726  11.448  0.0905 -0.6660  1.3645
   34UDC    C11  374   3.935   8.679  11.589 -0.0025  0.4214  0.0684
   35UDC     C1  375   7.355  10.194   7.467  0.3285 -0.8394 -0.4701
   35UDC     C2  376   7.244  10.223   7.362  0.1096  0.6107 -0.8916
   35UDC     C3  377   7.128  10.127   7.360  0.5377  0.6108  0.2397
   35UDC     C4  378   7.084  10.063   7.498 -0.2713  0.2917 -0.1514
   35UDC     C5  379   7.078   9.910   7.499  0.5933  0.7702 -0.3099
   35UDC     C6  380   6.995   9.853   7.615  0.9777 -0.8708  0.0724
   35UDC     C7  381   6.971   9.703   7.598 -0.4973 -0.7953 -0.2875
   35UDC     C8  382   6.955   9.669   7.450  0.0596 -0.6271 -1.9416
   35UDC     C9  383   6.908   9.527   7.440  0.6071  0.6040 -0.4720
   35UDC    C10  384   6.952   9.454   7.309 -0.0802  0.3745  0.2705
   35UDC    C11  385   7.108   9.454   7.283  1.1125 -0.4966 -0.0348
   36UDC     C1  386   1.553   0.641   4.628  0.7209 -0.5084  0.3148
   36UDC     C2  387   1.635   0.774   4.633 -0.7908 -0.4785  0.4761
   36UDC     C3  388   1.770   0.768   4.559  0.1642 -0.4198 -0.2640
   36UDC     C4  389   1.867   0.885   4.532 -1.4126  0.6801  0.2680
   36UDC     C5  390   1.846   0.939   4.394 -0.3711 -0.7424 -0.7369
   36UDC     C6  391   1.862   1.090   4.384 -0.1844 -1.1643 -0.6856
   36UDC     C7  392   1.751   1.165   4.456  0.4983  0.8684  0.3952
   36UDC     C8  393   1.793   1.316   4.480  0.6962  0.8113 -0.7808
   36UDC     C9  394   1.705   1.369   4.599  0.0087 -0.5585 -0.3351
   36UDC    C10  395   1.771   1.505   4.632 -0.1019  1.0368  0.7375
   36UDC    C11  396   1.915   1.511   4.689 -0.7563  0.4484 -0.7588
   37UDC     C1  397  16.935   4.290   6.434  0.1486  0.1719 -0.2176
   37UDC     C2  398  16.978   4.320   6.289 -0.8233  1.2183  0.0628
   37UDC     C3  399  16.869   4.365   6.194  0.3803 -0.1566  0.0696
   37UDC     C4  400  16.942   4.422   6.069 -0.4711  0.0396 -0.8173
   37UDC     C5  401  16.983   4.564   6.087  0.0575 -0.7801 -0.6620
   37UDC     C6  402  16.920   4.664   5.984 -0.7813 -0.8390  0.3016
   37UDC     C7  403  16.936   4.799   6.053  0.5867 -0.3513  0.1063
   37UDC     C8  404  17.052   4.894   5.994 -0.6569 -0.0874 -0.5637
   37UDC     C9  405  17.078   4.889   5.840 -0.4636  0.1841  0.0491
   37UDC    C10  406  17.177   4.996   5.788 -0.3629 -0.9153  0.7974
   37UDC    C11  407  17.317   4.985   5.854  0.3716  0.2234 -0.1263
   38UDC     C1  408  18.871   0.064   5.318  0.2795 -0.1257 -0.2606
   38UDC     C2  409  19.004   0.143   5.307 -0.7728  0.6974 -0.0447
   38UDC     C3  410  18.967   0.290   5.339  0.0307  0.1368 -0.6487
   38UDC     C4  411  18.951   0.290   5.488  0.0382  0.3540 -0.4846
   38UDC     C5  412  18.888   0.418   5.540 -0.0888 -0.4668  0.5718
   38UDC     C6  413  18.838   0.437   5.681 -0.0915 -0.3690  0.1098
   38UDC     C7  414  18.939   0.361   5.767  0.3920  0.0764  0.3907
   38UDC     C8  415  18.931   0.351   5.919  0.2181 -0.5561  0.7819
   38UDC     C9  416  18.888   0.473   6.008 -0.6680  0.5385  0.2978
   38UDC    C10  417  18.883   0.465   6.159 -0.8096  0.2230  0.0692
   38UDC    C11  418  19.000   0.390   6.220  0.3650 -0.2117  0.4718
   39UDC     C1  419   5.152  12.086  12.442  0.1006  0.1158  0.4568
   39UDC     C2  420   5.087  11.959  12.368 -0.3185 -0.3892  0.8034
   39UDC     C3  421   4.986  12.005  12.257  0.0874 -0.3978 -0.2567
   39UDC     C4  422   5.063  12.036  12.125  0.5438 -0.2233 -0.1351
   39UDC     C5  423   5.148  12.166  12.116  0.5966 -0.6720  0.3393
   39UDC     C6  424   5.234  12.186  11.986  0.9287  0.3269  0.7440
   39UDC     C7  425   5.178  12.214  11.845  0.2810 -0.8540 -0.2945
   39UDC     C8  426   5.285  12.244  11.742  0.2733 -0.9001 -0.7319
   39UDC     C9  427   5.421  12.286  11.799 -0.7098  0.0415  0.3386
   39UDC    C10  428   5.534  12.353  11.715 -0.5972  0.5810 -0.8367
   39UDC    C11  429   5.575  12.262  11.597  0.0629 -0.6141 -0.2819
   40UDC     C1  430  15.891   4.477  15.673 -1.0918 -0.6700 -0.4056
   40UDC     C2  431  16.038   4.453  15.640  0.5679  0.4987 -0.1036
   40UDC     C3  432  16.130   4.457  15.764  0.4472 -1.0573 -0.5912
   40UDC     C4  433  16.202   4.592  15.765 -0.5822  0.3358  0.1960
   40UDC     C5  434  16.300   4.617  15.879  0.7814  0.0870  0.8821
   40UDC     C6  435  16.233   4.642  16.019  0.7424  0.5363  0.3492
   40UDC     C7  436  16.156   4.774  16.050  0.3133  1.5416  0.9705
   40UDC     C8  437  16.079   4.787  16.181  1.1066  0.5091 -0.1578
   40UDC     C9  438  16.153   4.763  16.318 -0.8966  1.0553  0.4919
   40UDC    C10  439  16.077   4.818  16.430  0.1934  0.0905  1.3729
   40UDC    C11  440  16.132   4.768  16.562 -1.6177 -0.9423 -0.3520
   41UDC     C1  441   6.277  17.662  12.884 -0.3802  0.5923 -0.6169
   41UDC     C2  442   6.414  17.653  12.952 -0.1574 -0.3322 -0.4691
   41UDC     C3  443   6.528  17.550  12.896  1.9418 -0.1707  0.6544
   41UDC     C4  444   6.603  17.575  12.765 -0.0446  0.4470 -0.7254
   41UDC     C5  445   6.735  17.510  12.725  0.1437 -1.1128 -0.0566
   41UDC     C6  446   6.833  17.565  12.825  0.1698 -0.0600  0.0496
   41UDC     C7  447   6.988  17.562  12.833 -0.3730  0.1185 -1.0324
   41UDC     C8  448   7.021  17.585  12.981 -0.6658  0.4553  0.0553
   41UDC     C9  449   7.171  17.590  13.029  0.4490 -0.1915 -0.9457
   41UDC    C10  450   7.277  17.657  12.946  0.1228 -0.3892  0.0354
   41UDC    C11  451   7.275  17.814  12.956  0.0836  0.7946  0.8039
   42UDC     C1  452   7.529  12.845   7.207 -0.5215  0.2417 -0.4504
   42UDC     C2  453   7.486  12.993   7.227  0.7361 -0.4168  0.2840
   42UDC     C3  454   7.446  13.043   7.368 -0.4942 -0.1317  1.1005
   42UDC     C4  455   7.300  13.026   7.407 -0.5677 -0.1499  0.9057
   42UDC     C5  456   7.247  12.884   7.433 -1.0424 -0.4723  0.7787
   42UDC     C6  457   7.235  12.859   7.584 -0.4488 -1.4313 -0.2125
   42UDC     C7  458   7.137  12.736   7.591 -0.8887  0.0589  0.1034
   42UDC     C8  459   7.003  12.754   7.514  0.0265 -0.0438  0.2925
   42UDC     C9  460   6.907  12.641   7.499  1.6708  0.2336 -0.8056
   42UDC    C10  461   6.807  12.643   7.379  0.1372 -0.7638 -0.6788
   42UDC    C11  462   6.866  12.640   7.236  0.8427 -0.7675  0.5934
   43UDC     C1  463  16.200   0.656   3.641 -0.4728 -0.1953 -1.6490
   43UDC     C2  464  16.068   0.696   3.577  0.8509 -0.1835 -0.8468
   43UDC     C3  465  15.941   0.680   3.663 -1.0176 -0.3163 -0.0096
   43UDC     C4  466  15.816   0.645   3.585 -0.0405 -0.2447  0.3977
   43UDC     C5  467  15.720   0.561   3.673  0.7322 -0.7054 -0.3539
   43UDC     C6  468  15.596   0.530   3.599 -0.0138  0.0442 -0.6663
   43UDC     C7  469  15.471   0.515   3.688  0.0811  0.4278 -0.5378
   43UDC     C8  470  15.371   0.426   3.603  0.2876  0.3634  0.8972
   43UDC     C9  471  15.267   0.346   3.675 -0.0312 -0.0697  0.3275
   43UDC    C10  472  15.161   0.322   3.563 -0.9066  0.3462 -0.2757
   43UDC    C11  473  15.237   0.292   3.431 -0.6931 -0.5317  0.0150
   44UDC     C1  474  15.272  16.013  15.843  1.0329 -0.1147  0.5395
   44UDC     C2  475  15.257  15.982  15.998 -0.4135 -0.3556  0.9763
   44UDC     C3  476  15.379  15.894  16.051 -0.3368  0.0432  0.3015
   44UDC     C4  477  15.358  15.856  16.203  1.2187 -0.5132  0.1749
   44UDC     C5  478  15.483  15.783  16.252  0.1506  0.6642  1.0428
   44UDC     C6  479  15.515  15.766  16.401 -0.4133  0.6920  0.1280
   44UDC     C7  480  15.421  15.687  16.497 -0.9462 -0.4535  0.6333
   44UDC     C8  481  15.428  15.541  16.481  0.0998  0.5928 -0.0777
   44UDC     C9  482  15.334  15.450  16.561  0.6737 -0.2203  0.1166
   44UDC    C10  483  15.314  15.297  16.527  0.1964  0.3551  0.2005
   44UDC    C11  484  15.415  15.203  16.595  0.7542  0.1845 -0.0351
   45UDC     C1  485   2.240   1.169   5.370  0.9977  0.0125  0.3486
   45UDC     C2  486   2.194   1.271   5.263 -0.6761  0.2825 -0.6050
   45UDC     C3  487   2.294   1.383   5.281 -0.2331  0.5976  0.5345
   45UDC     C4  488   2.259   1.478   5.403 -0.5092 -0.0648  0.4432
   45UDC     C5  489   2.149   1.576   5.366  1.0758 -0.3528  1.1126
   45UDC     C6  490   2.186   1.694   5.263  0.1474  0.5744  0.1317
   45UDC     C7  491   2.068   1.781   5.197  0.4518  0.3140  0.1366
   45UDC     C8  492   2.124   1.893   5.103 -0.3339 -0.3879  0.7117
   45UDC     C9  493   2.204   1.999   5.177  0.1403 -1.2907  0.0327
   45UDC    C10  494   2.132   2.045   5.308 -0.6519 -0.6042 -0.2236
   45UDC    C11  495   2.198   2.166   5.385 -0.0593  0.2501 -0.6194
   46UDC     C1  496   4.032   5.846   2.548 -0.1049  0.1234 -0.3746
   46UDC     C2  497   4.159   5.931   2.574  0.0676 -0.0670 -0.2446
   46UDC     C3  498   4.246   5.967   2.452 -0.8378 -0.4113 -0.2368
   46UDC     C4  499   4.367   6.066   2.475 -0.2472 -0.0491  0.5560
   46UDC     C5  500   4.431   6.094   2.338 -0.2607  1.3490 -0.5157
   46UDC     C6  501   4.420   6.242   2.307  0.3496 -0.1064 -0.1951
   46UDC     C7  502   4.548   6.313   2.336  0.1750 -0.3158  0.2722
   46UDC     C8  503   4.658   6.240   2.261  0.0212 -0.4263 -0.3992
   46UDC     C9  504   4.801   6.293   2.279  0.2606  0.8067  0.1637
   46UDC    C10  505   4.882   6.293   2.149  0.3899 -0.1067  0.9188
   46UDC    C11  506   4.845   6.419   2.087 -0.1419 -0.1398  0.2716
   47UDC     C1  507   7.641  11.184  14.887  0.6027 -0.8166 -0.3249
   47UDC     C2  508   7.764  11.247  14.957  0.2279 -0.4525  0.1119
   47UDC     C3  509   7.712  11.332  15.078  0.8697  0.5114 -0.2709
   47UDC     C4  510   7.814  11.354  15.187  0.1329 -1.1172 -1.5913
   47UDC     C5  511   7.941  11.431  15.131  0.8249 -0.0134 -0.3141
   47UDC     C6  512   8.048  11.439  15.236  0.6572 -0.6511 -0.3397
   47UDC     C7  513   8.176  11.360  15.206 -0.2629 -0.6684  0.6030
   47UDC     C8  514   8.165  11.212  15.227  0.5510  0.5538 -0.0624
   47UDC     C9  515   8.299  11.152  15.281 -0.6961 -0.7809  0.1448
   47UDC    C10  516   8.290  10.993  15.312 -0.4463 -0.1946  0.5868
   47UDC    C11  517   8.190  10.959  15.418 -0.5219  1.0763 -0.1667
   48UDC     C1  518  17.929   0.645  17.424 -0.0095  0.1488 -1.4552
   48UDC     C2  519  17.857   0.612  17.556  0.3563 -0.1910 -0.0417
   48UDC     C3  520  17.946   0.565  17.679  0.6545  0.4538  1.0913
   48UDC     C4  521  18.063   0.649  17.709  0.1121 -0.4844  0.8233
   48UDC     C5  522  18.164   0.568  17.798  0.6807  0.7378 -0.2445
   48UDC     C6  523  18.312   0.594  17.806  0.9110 -0.2209 -0.7315
   48UDC     C7  524  18.385   0.513  17.908  0.2763 -0.2603 -0.1089
   48UDC     C8  525  18.519   0.551  17.924  0.2610 -0.9662  0.2193
   48UDC     C9  526  18.587   0.469  18.035 -0.7776  0.9550 -0.2757
   48UDC    C10  527  18.736   0.493  18.057  0.4607 -0.7662  0.7054
   48UDC    C11  528  18.779   0.605  18.155  0.1325  0.9477  0.2108
   49UDC     C1  529  10.564   9.712   8.955  0.4899  0.3746  0.0671
   49UDC     C2  530  10.566   9.615   9.071 -0.0749 -0.0448 -0.2045
   49UDC     C3  531  10.457   9.508   9.034 -0.1620 -0.7141 -0.9987
   49UDC     C4  532  10.440   9.408   9.146 -1.3639 -0.0213  0.2644
   49UDC     C5  533  10.299   9.338   9.148  1.0706  0.2659  0.0653
   49UDC     C6  534  10.308   9.220   9.243  0.3500 -0.2919  0.1673
   49UDC     C7  535  10.174   9.168   9.297  0.8081  0.8498 -0.1359
   49UDC     C8  536  10.101   9.245   9.407  0.1871 -0.5823 -0.3014
   49UDC     C9  537  10.176   9.293   9.540  0.2492  0.5372 -0.3809
   49UDC    C10  538  10.233   9.170   9.610 -0.5790  0.7581  0.1653
   49UDC    C11  539  10.387   9.157   9.587  0.7974  0.0662  0.4585
   50UDC     C1  540  18.587  11.233  18.991 -0.2215 -1.0848  0.2567
   50UDC     C2  541  18.495  11.108  18.966 -0.2908 -1.4523  0.9271
   50UDC     C3  542  18.415  11.123  18.833 -1.0125  0.5322 -0.6335
   50UDC     C4  543  18.333  11.007  18.771  0.0854  1.1564 -0.6963
   50UDC     C5  544  18.217  10.947  18.849  0.0387  0.1567 -0.1097
   50UDC     C6  545  18.206  10.795  18.822  0.4451 -0.8425 -0.7048
   50UDC     C7  546  18.149  10.709  18.932 -0.5196 -0.7660 -0.5095
   50UDC     C8  547  18.187  10.565  18.917  0.8977 -0.8690 -0.6698
   50UDC     C9  548  18.213  10.483  19.047  0.6439  0.3194  0.2702
   50UDC    C10  549  18.356  10.458  19.087 -0.9961  0.7633  0.1794
   50UDC    C11  550  18.383  10.358  19.208 -0.0368  0.5363  1.1401
   51UDC     C1  551   6.726  10.572  16.235  0.3330 -0.1230 -1.3657
   51UDC     C2  552   6.755  10.656  16.105  0.8240  0.4401 -0.0233
   51UDC     C3  553   6.637  10.698  16.015 -0.0703  1.1431  0.6216
   51UDC     C4  554   6.670  10.748  15.875 -0.7874 -0.5310  1.6552
   51UDC     C5  555   6.752  10.633  15.801  0.3268  0.0103 -0.6677
   51UDC     C6  556   6.899  10.672  15.771  1.1980 -0.7389 -0.4202
   51UDC     C7  557   6.917  10.791  15.673  0.2386  0.5421  0.4154
   51UDC     C8  558   7.044  10.863  15.687 -0.3909  0.2592 -0.5526
   51UDC     C9  559   7.059  10.948  15.813 -1.1748  0.7585 -0.6805
   51UDC    C10  560   6.959  11.065  15.797 -1.2200 -1.0860  1.4716
   51UDC    C11  561   6.985  11.150  15.675 -1.0913  0.2462 -0.0907
   52UDC     C1  562   4.224   7.753  18.345 -1.0843  0.5968  0.4805
   52UDC     C2  563   4.344   7.657  18.337 -1.3419  0.6561  0.0787
   52UDC     C3  564   4.365   7.554  18.453 -0.4442  0.6338  0.0575
   52UDC     C4  565   4.254   7.457  18.442 -0.3318  0.6829  1.0860
   52UDC     C5  566   4.273   7.345  18.332 -0.7456  0.4564  0.3522
   52UDC     C6  567   4.162   7.248  18.298 -0.3353  0.9982  0.0383
   52UDC     C7  568   4.056   7.334  18.227  0.5111  1.2408 -0.4622
   52UDC     C8  569   4.090   7.399  18.094 -0.5882  0.0719  0.4496
   52UDC     C9  570   4.023   7.526  18.058 -0.8540 -0.7512  0.1663
   52UDC    C10  571   4.034   7.584  17.918 -0.3743  0.8353 -0.6638
   52UDC    C11  572   4.005   7.484  17.809  0.0346  0.3476 -0.2277
   53UDC     C1  573   4.636  16.745   1.818 -0.0107 -0.0157  0.2317
   53UDC     C2  574   4.549  16.762   1.939 -0.7042 -0.8616  0.0294
   53UDC     C3  575   4.455  16.643   1.965  0.0466  0.2557  0.5582
   53UDC     C4  576   4.335  16.660   2.057 -0.2911 -0.8149  0.9472
   53UDC     C5  577   4.256  16.782   2.009 -0.1278  0.3046 -0.0838
   53UDC     C6  578   4.148  16.785   2.110  0.5815 -0.1284 -0.5303
   53UDC     C7  579   4.041  16.885   2.052 -0.3616 -0.2952  1.3165
   53UDC     C8  580   3.924  16.808   1.985 -0.5208  0.4562 -0.7362
   53UDC     C9  581   3.833  16.759   2.101  0.1549 -0.1941 -0.3857
   53UDC    C10  582   3.768  16.887   2.160  0.5038 -0.2596 -1.1570
   53UDC    C11  583   3.677  16.834   2.268 -0.3894 -1.0587  1.2231
   54UDC     C1  584  18.087  18.943  14.182  0.1424 -0.6191 -0.3574
   54UDC     C2  585  17.960  18.863  14.153 -0.9620  0.4670  0.4177
   54UDC     C3  586  17.966  18.714  14.196 -0.0550 -0.4971 -0.9121
   54UDC     C4  587  17.851  18.622  14.143  0.1609  0.5919 -0.7287
   54UDC     C5  588  17.869  18.586  13.998 -1.0415 -0.0003  0.8977
   54UDC     C6  589  17.764  18.510  13.920  0.3529  0.5673  0.5243
   54UDC     C7  590  17.704  18.391  13.996 -0.7936  0.2100 -0.3756
   54UDC     C8  591  17.790  18.267  13.973 -0.7475  0.4464 -0.8285
   54UDC     C9  592  17.740  18.140  14.043  0.3573 -0.5479  0.0383
   54UDC    C10  593  17.865  18.044  14.068  0.8017  0.2067 -0.4856
   54UDC    C11  594  17.828  17.894  14.060 -1.0508 -0.1464 -0.4486
   55UDC     C1  595  19.176   9.146   7.933  0.7072 -0.9099  0.3771
   55UDC     C2  596  19.231   9.053   7.823 -0.1518  0.0973  0.5684
   55UDC     C3  597  19.369   9.108   7.772 -0.2403 -0.3904 -0.0898
   55UDC     C4  598  19.426   9.003   7.676 -0.5858  0.9064 -0.1246
   55UDC     C5  599  19.583   9.004   7.669 -0.4200 -0.0085  0.4743
   55UDC     C6  600  19.638   8.863   7.683 -0.0607 -0.3779  1.2909
   55UDC     C7  601  19.766   8.850   7.770 -0.2832  0.9967  0.9083
   55UDC     C8  602  19.895   8.889   7.682  1.2393  0.0843  0.8123
   55UDC     C9  603  20.032   8.892   7.744 -0.8014  0.3828  0.5318
   55UDC    C10  604  20.138   8.931   7.642  0.1116 -0.7612  0.0599
   55UDC    C11  605  20.275   8.950   7.706  0.5922  0.4293  0.3697
   56UDC     C1  606  16.784   6.549  11.368  0.8560  0.0078 -0.1365
   56UDC     C2  607  16.793   6.574  11.514 -0.0844  0.8001  0.3755
   56UDC     C3  608  16.932   6.587  11.575  0.4514 -0.1159  1.0515
   56UDC     C4  609  16.933   6.579  11.733 -0.7733 -0.1522 -0.5174
   56UDC     C5  610  16.818   6.655  11.806  0.2872 -0.1613 -0.0696
   56UDC     C6  611  16.852   6.667  11.956 -0.2434 -0.7184  0.3141
   56UDC     C7  612  16.759   6.744  12.048 -0.8513  0.5406 -0.8464
   56UDC     C8  613  16.701   6.657  12.172 -1.0885 -0.7198  0.9011
   56UDC     C9  614  16.588   6.557  12.152  0.9380 -0.3974  0.5020
   56UDC    C10  615  16.537   6.487  12.273 -0.4726 -0.4913 -0.3346
   56UDC    C11  616  16.627   6.478  12.394 -0.0289  1.1003 -0.2568
   57UDC     C1  617   2.696   0.400  10.796  0.0445  0.1802 -0.6041
   57UDC     C2  618   2.723   0.538  10.836 -0.2857 -0.7158  0.6628
   57UDC     C3  619   2.773   0.567  10.984 -0.0407 -0.3571  0.8224
   57UDC     C4  620   2.917   0.514  10.990 -0.7746 -1.3897  0.0763
   57UDC     C5  621   3.004   0.592  11.099  0.4947 -0.9165 -0.5326
   57UDC     C6  622   3.153   0.597  11.050  0.9002  0.7050  0.2813
   57UDC     C7  623   3.266   0.612  11.151 -1.6264  0.4975  0.3068
   57UDC     C8  624   3.264   0.524  11.279 -0.6622 -1.1014 -0.4941
   57UDC     C9  625   3.329   0.382  11.271 -1.1966 -0.4737  0.7682
   57UDC    C10  626   3.409   0.329  11.395 -0.7120 -0.6035  0.4969
   57UDC    C11  627   3.442   0.178  11.395 -0.5195 -0.3379  1.2381
   58UDC     C1  628   9.852  12.144  16.509  0.1067 -1.1197  0.0298
   58UDC     C2  629   9.805  12.088  16.377 -0.3578  0.1675  0.0915
   58UDC     C3  630   9.881  11.968  16.325 -0.0183  0.5141  0.3247
   58UDC     C4  631   9.849  11.961  16.173 -0.7376 -1.0905  0.4924
   58UDC     C5  632   9.692  11.985  16.161  0.0013  0.0478  1.6176
   58UDC     C6  633   9.631  11.959  16.015  0.6023 -0.6765 -0.0244
   58UDC     C7  634   9.685  12.014  15.887  0.0094 -0.8433  0.5108
   58UDC     C8  635   9.593  11.986  15.762  0.2915  0.1609 -0.5579
   58UDC     C9  636   9.502  12.111  15.742  1.1675  0.3714  0.1845
   58UDC    C10  637   9.381  12.066  15.661 -0.3368  0.7069  0.8339
   58UDC    C11  638   9.375  12.149  15.537 -0.5492 -1.4810 -0.5928
   59UDC     C1  639  14.138  13.775  13.894  0.3734 -0.2777  0.1949
   59UDC     C2  640  14.246  13.795  14.003  0.3477 -0.4016 -0.1030
   59UDC     C3  641  14.363  13.876  13.947 -0.8059 -1.6911 -0.3892
   59UDC     C4  642  14.331  14.030  13.975 -0.4274  0.2987 -0.7693
   59UDC     C5  643  14.438  14.128  13.907  0.5493  1.3165 -1.0829
   59UDC     C6  644  14.414  14.275  13.912 -0.6678 -0.1015  0.5233
   59UDC     C7  645  14.509  14.365  13.834 -0.1126  0.9726  1.4136
   59UDC     C8  646  14.540  14.313  13.688  0.4774 -0.3082  0.7277
   59UDC     C9  647  14.640  14.397  13.612 -0.3512  0.5613  0.0789
   59UDC    C10  648  14.659  14.365  13.466 -1.1299 -0.2941  0.8601
   59UDC    C11  649  14.679  14.220  13.434 -0.1786 -0.6236  0.0014
   60UDC     C1  650   7.218  15.370  10.064  0.5667 -0.4306 -0.0184
   60UDC     C2  651   7.084  15.382  10.141 -0.0125 -0.1697  0.6394
   60UDC     C3  652   6.980  15.264  10.100  0.3997  0.1612  0.8315
   60UDC     C4  653   6.944  15.167  10.211  0.6640 -0.3087  0.1018
   60UDC     C5  654   6.957  15.212  10.355 -0.1026 -0.3641  0.9664
   60UDC     C6  655   7.098  15.166  10.421  0.1566 -0.3648  1.1927
   60UDC     C7  656   7.082  15.111  10.559 -0.2811 -0.0249  0.1984
   60UDC     C8  657   7.171  14.995  10.595 -0.0353 -0.0826  1.0421
   60UDC     C9  658   7.141  14.924  10.724  1.0461  0.3764  0.3161
   60UDC    C10  659   7.251  14.821  10.766  1.4145  0.4097  0.4274
   60UDC    C11  660   7.271  14.734  10.646 -0.1575  0.6714 -0.1791
   61UDC     C1  661  17.867  16.339  16.703 -0.5426 -1.1417  0.6549
   61UDC     C2  662  17.874  16.200  16.661  0.0127  0.8639  0.4380
   61UDC     C3  663  17.949  16.153  16.532  0.3122  0.6317  0.4319
   61UDC     C4  664  17.905  16.001  16.498  0.2799 -1.6366  0.4419
   61UDC     C5  665  18.034  15.929  16.504 -0.0847 -1.1122  0.1740
   61UDC     C6  666  18.063  15.780  16.470  0.5013 -0.4246 -0.3937
   61UDC     C7  667  18.065  15.675  16.583  0.2392 -0.3105 -0.0436
   61UDC     C8  668  17.957  15.565  16.566  0.7406  0.4079  1.3087
   61UDC     C9  669  18.009  15.423  16.518 -0.1980  0.8349 -0.4479
   61UDC    C10  670  18.091  15.426  16.395 -0.1980 -0.1205  0.7521
   61UDC    C11  671  18.169  15.293  16.369  0.4728  0.0434  0.2662
   62UDC     C1  672   2.333  18.411  10.872 -0.2105  1.0098 -0.9371
   62UDC     C2  673   2.403  18.512  10.777  0.3895  0.1064 -1.3118
   62UDC     C3  674   2.371  18.474  10.631  1.2105  0.2281 -0.8433
   62UDC     C4  675   2.388  18.589  10.530 -0.1969  0.0117 -0.3857
   62UDC     C5  676   2.408  18.552  10.387  0.3400 -1.1993 -0.4270
   62UDC     C6  677   2.427  18.668  10.286  0.2929  0.2627 -0.5406
   62UDC     C7  678   2.579  18.695  10.299 -0.5517 -0.4219  0.7437
   62UDC     C8  679   2.618  18.841  10.267 -0.3041  0.5031  0.1021
   62UDC     C9  680   2.757  18.872  10.199  0.8930 -0.1736  0.7644
   62UDC    C10  681   2.788  19.019  10.227  0.6347 -0.5228 -1.0898
   62UDC    C11  682   2.906  19.032  10.321  0.5742 -0.4424 -0.2537
   63UDC     C1  683  13.936  19.287   3.655  0.4736  0.0708  0.3497
   63UDC     C2  684  13.831  19.176   3.674  0.1140 -0.5877  0.4970
   63UDC     C3  685  13.763  19.185   3.811  0.2269 -0.7392  1.1124
   63UDC     C4  686  13.699  19.326   3.807  0.9160  0.4826  0.0290
   63UDC     C5  687  13.617  19.373   3.684 -0.0418 -1.9818  0.1152
   63UDC     C6  688  13.553  19.510   3.680  0.6010  0.0814 -0.5733
   63UDC     C7  689  13.424  19.507   3.600  0.5468  0.2047 -0.4858
   63UDC     C8  690  13.340  19.639   3.621 -0.8536  0.0097 -0.9600
   63UDC     C9  691  13.366  19.781   3.568 -0.2641 -0.5116  0.7359
   63UDC    C10  692  13.250  19.886   3.568 -0.4686 -0.0241 -2.0131
   63UDC    C11  693  13.300  20.035   3.543  0.5764 -0.2279 -0.5676
   64UDC     C1  694   7.286  19.608  13.352 -0.3931 -0.1971 -0.2560
   64UDC     C2  695   7.172  19.540  13.276  0.7484 -0.6302  0.7015
   64UDC     C3  696   7.149  19.611  13.143 -0.8449  0.8624 -0.5430
   64UDC     C4  697   7.270  19.596  13.059 -0.5242 -0.1437  0.7383
   64UDC     C5  698   7.279  19.465  12.988 -0.2067  0.2187 -0.3762
   64UDC     C6  699   7.170  19.425  12.892  0.6827  0.0466  0.0136
   64UDC     C7  700   7.181  19.271  12.899  0.2342  0.6727  0.8799
   64UDC     C8  701   7.065  19.195  12.965  0.0812  0.1274  0.5127
   64UDC     C9  702   6.928  19.206  12.897 -1.2307 -0.4019 -1.4612
   64UDC    C10  703   6.921  19.169  12.752  0.4920  0.1115  0.3150
   64UDC    C11  704   6.989  19.042  12.717  0.1369  0.7805  0.8691
   65UDC     C1  705   1.319  18.271   0.978  0.0599  0.0429  0.4495
   65UDC     C2  706   1.193  18.188   0.982  0.5029  0.4557 -0.4698
   65UDC     C3  707   1.225  18.037   0.962  0.1166  0.6283 -1.1488
   65UDC     C4  708   1.113  17.941   0.912 -0.7522 -0.0827  0.7552
   65UDC     C5  709   1.146  17.792   0.921  0.2109  0.1760 -0.1937
   65UDC     C6  710   1.182  17.740   1.060 -0.9672  0.5742  0.7821
   65UDC     C7  711   1.206  17.587   1.092 -0.0446 -0.5148 -0.5927
   65UDC     C8  712   1.314  17.559   1.203  0.1828 -0.1191 -0.1107
   65UDC     C9  713   1.322  17.640   1.334  0.2000  0.0757 -0.1620
   65UDC    C10  714   1.402  17.574   1.451  0.5824 -0.5918  0.2970
   65UDC    C11  715   1.406  17.660   1.576  0.2435 -0.6376 -0.0027
   66UDC     C1  716  19.478   5.019  11.450 -0.3933  0.3772 -0.4657
   66UDC     C2  717  19.628   5.041  11.471  0.6710  0.1549  0.7328
   66UDC     C3  718  19.657   5.076  11.616  0.2259 -0.0438  0.0618
   66UDC     C4  719  19.657   4.977  11.738 -0.2081 -0.5513 -1.1200
   66UDC     C5  720  19.644   5.047  11.879 -0.6599  0.1568  0.8570
   66UDC     C6  721  19.705   4.953  11.990  0.1434 -0.5973 -0.5076
   66UDC     C7  722  19.854   4.928  11.980 -0.4197  0.6239  0.1381
   66UDC     C8  723  19.942   5.045  11.930 -0.0573  1.2863 -1.0624
   66UDC     C9  724  19.985   5.148  12.040 -0.3031  0.5395  0.3046
   66UDC    C10  725  20.096   5.251  12.001  0.1214 -0.4686 -0.0029
   66UDC    C11  726  20.062   5.382  11.930  0.1399  0.7787  0.4380
   67UDC     C1  727   0.768  17.865   8.863  0.0781 -0.4558  0.3984
   67UDC     C2  728   0.828  17.916   8.726  0.8251 -0.4813 -0.7214
   67UDC     C3  729   0.734  17.922   8.605 -0.5465  0.8429 -0.0106
   67UDC     C4  730   0.735  17.779   8.545  0.6815 -0.3685  0.0139
   67UDC     C5  731   0.666  17.746   8.409  0.0243 -0.9002  0.5991
   67UDC     C6  732   0.731  17.798   8.278 -1.1024 -0.3808  0.1348
   67UDC     C7  733   0.654  17.777   8.148  0.6045  0.5492  0.0974
   67UDC     C8  734   0.510  17.818   8.124  0.0720 -0.4167 -0.2041
   67UDC     C9  735   0.433  17.723   8.034  0.7230 -0.9296  0.2551
   67UDC    C10  736   0.292  17.762   8.052 -0.5287 -0.4127 -0.4916
   67UDC    C11  737   0.251  17.770   8.198  0.2349 -0.6342 -0.1013
   68UDC     C1  738  13.816  18.316   7.381  0.3836 -0.0189  0.6423
   68UDC     C2  739  13.834  18.437   7.284 -1.3117  0.1006  0.0867
   68UDC     C3  740  13.700  18.462   7.208 -0.7686  1.2254  0.7502
   68UDC     C4  741  13.716  18.580   7.112 -0.6058 -1.2812 -0.5880
   68UDC     C5  742  13.576  18.614   7.046 -0.3250  1.2911  0.6218
   68UDC     C6  743  13.502  18.502   6.967 -0.2380 -0.4104 -0.9218
   68UDC     C7  744  13.353  18.520   6.934 -0.4806 -0.7225  0.0668
   68UDC     C8  745  13.340  18.607   6.808 -0.1216  0.4175 -0.6639
   68UDC     C9  746  13.197  18.594   6.745 -1.1073  0.5461 -0.7569
   68UDC    C10  747  13.077  18.653   6.819  0.1407  0.0818 -0.0829
   68UDC    C11  748  13.072  18.805   6.820  0.9960 -0.2309 -0.2288
   69UDC     C1  749  17.739   9.216  12.871  0.0401 -0.3924 -0.0161
   69UDC     C2  750  17.831   9.336  12.881 -0.8085 -0.3199  0.2455
   69UDC     C3  751  17.808   9.394  13.028 -0.7029 -0.1074  0.6512
   69UDC     C4  752  17.810   9.285  13.130  0.1850  0.7776  1.1417
   69UDC     C5  753  17.820   9.328  13.275 -0.1847  0.0640  0.6330
   69UDC     C6  754  17.787   9.221  13.380 -0.4466  0.3034  0.1045
   69UDC     C7  755  17.688   9.262  13.485 -0.8709 -0.1438  0.7985
   69UDC     C8  756  17.560   9.263  13.407  0.5421 -0.7348  0.7368
   69UDC     C9  757  17.488   9.133  13.409  0.3987  0.1815  0.3080
   69UDC    C10  758  17.357   9.135  13.326 -0.0179 -0.6499 -1.0518
   69UDC    C11  759  17.364   9.213  13.193  0.8541  0.2089  0.5223
   70UDC     C1  760  12.610  19.509   3.582 -0.2041  0.7829 -0.2803
   70UDC     C2  761  12.548  19.645   3.605  0.0103  0.0519 -0.7091
   70UDC     C3  762  12.653  19.751   3.642 -0.1958 -0.1599  0.7695
   70UDC     C4  763  12.798  19.709   3.664 -0.9819  0.0474 -0.2839
   70UDC     C5  764  12.885  19.830   3.712  0.2725  0.2546  0.8794
   70UDC     C6  765  12.846  19.858   3.854  0.9308 -0.5333  0.9980
   70UDC     C7  766  12.979  19.902   3.921  0.2091  0.3199 -0.9842
   70UDC     C8  767  13.028  20.029   3.850  1.4383 -0.5589 -0.1946
   70UDC     C9  768  13.103  20.141   3.923 -0.1535 -0.4765  0.3835
   70UDC    C10  769  13.103  20.264   3.820 -0.1606  0.1074 -0.2602
   70UDC    C11  770  12.951  20.280   3.811 -0.1787 -0.6708  0.1102
   71UDC     C1  771   9.501  15.761  10.093  0.3652  0.0096  0.0871
   71UDC     C2  772   9.407  15.692  10.192  0.5096 -0.3457  0.4104
   71UDC     C3  773   9.463  15.558  10.236  0.6768  0.1832 -2.0701
   71UDC     C4  774   9.445  15.519  10.387  0.4891 -0.2549 -0.1250
   71UDC     C5  775   9.306  15.456  10.416 -1.1089 -0.5211  0.4960
   71UDC     C6  776   9.286  15.410  10.566 -1.0182  0.9426  0.1916
   71UDC     C7  777   9.272  15.534  10.646  0.8467 -0.3364  0.4919
   71UDC     C8  778   9.154  15.623  10.598 -0.4993  0.2303 -0.0480
   71UDC     C9  779   9.019  15.562  10.651  1.0298 -1.4204  0.3223
   71UDC    C10  780   8.902  15.656  10.632 -0.5866 -0.9338 -0.5351
   71UDC    C11  781   8.771  15.588  10.667 -0.0661  0.0532  0.2424
   72UDC     C1  782   8.344  13.858  17.270  0.2144  0.2867  0.6783
   72UDC     C2  783   8.201  13.842  17.203 -0.8618  0.2684  0.2675
   72UDC     C3  784   8.077  13.854  17.290 -0.3483  0.7013  0.0824
   72UDC     C4  785   7.974  13.884  17.186 -0.4466  1.0594 -0.3003
   72UDC     C5  786   7.984  13.800  17.058  0.2615 -0.1127  0.0254
   72UDC     C6  787   7.879  13.828  16.951  0.4773  0.1019 -0.1420
   72UDC     C7  788   7.937  13.820  16.801 -0.7610 -0.1516  0.2007
   72UDC     C8  789   7.817  13.810  16.697  0.1716  0.4048 -0.2475
   72UDC     C9  790   7.839  13.883  16.565 -0.6418 -0.4305  0.1200
   72UDC    C10  791   7.963  13.829  16.490 -0.1465  0.0784  0.3068
   72UDC    C11  792   8.013  13.891  16.359  0.2827 -0.2032 -0.4144
   73UDC     C1  793  13.398   1.891  17.170  0.3951  1.2323  0.1413
   73UDC     C2  794  13.371   1.907  17.318  0.3384  0.0456 -0.9498
   73UDC     C3  795  13.503   1.853  17.385  0.6548 -0.7228 -1.0143
   73UDC     C4  796  13.627   1.950  17.386  0.6337 -0.5943  0.9834
   73UDC     C5  797  13.747   1.908  17.471  0.6092  0.1364 -0.0516
   73UDC     C6  798  13.835   1.999  17.550 -1.3206  0.2148  0.1649
   73UDC     C7  799  13.872   2.121  17.467  1.7962  0.1053  0.2157
   73UDC     C8  800  13.980   2.196  17.549  0.0046  0.6157 -0.2549
   73UDC     C9  801  14.090   2.089  17.564  0.8839 -0.1988 -0.1106
   73UDC    C10  802  14.194   2.133  17.656 -0.3273 -0.0453 -0.1412
   73UDC    C11  803  14.322   2.042  17.656 -0.1787 -0.0368  0.3676
   74UDC     C1  804  16.375   8.123  17.967  1.5135 -0.0705  0.9909
   74UDC     C2  805  16.274   8.067  18.069  0.7111  0.2421 -1.3808
   74UDC     C3  806  16.132   8.020  18.022 -0.4355  0.1239 -0.4702
   74UDC     C4  807  16.131   7.883  17.964 -0.0076  0.1591 -0.6183
   74UDC     C5  808  16.008   7.803  18.011 -1.1344 -0.0717 -0.5579
   74UDC     C6  809  15.973   7.655  17.978  0.6600 -0.7570  0.5391
   74UDC     C7  810  15.833   7.601  18.027 -0.6407  0.6063  0.5575
   74UDC     C8  811  15.775   7.620  18.172  0.8593  0.2935  1.3087
   74UDC     C9  812  15.625   7.594  18.193  1.1781  0.0422 -0.6781
   74UDC    C10  813  15.583   7.607  18.341  0.2463 -0.2223 -0.0529
   74UDC    C11  814  15.435   7.583  18.377 -0.3545  0.1237  0.3286
   75UDC     C1  815   1.475  19.022   1.218  0.0873  0.2465  0.0614
   75UDC     C2  816   1.418  19.029   1.363  0.1442 -0.4317 -0.4513
   75UDC     C3  817   1.343  19.160   1.390  0.2241 -0.1635 -0.1167
   75UDC     C4  818   1.241  19.179   1.502 -0.0310  0.1205  0.6383
   75UDC     C5  819   1.300  19.256   1.617 -0.1019  0.0783 -0.1722
   75UDC     C6  820   1.410  19.364   1.609  0.0836  0.1254 -0.9027
   75UDC     C7  821   1.430  19.453   1.737 -0.3299  0.5999 -0.1122
   75UDC     C8  822   1.546  19.550   1.724 -0.6060 -0.0454  0.0579
   75UDC     C9  823   1.558  19.649   1.844  0.8504 -0.6634 -0.2343
   75UDC    C10  824   1.651  19.622   1.968  0.9249  0.0971  0.3538
   75UDC    C11  825   1.655  19.749   2.064  0.7110 -0.0239 -0.3667
   76UDC     C1  826   4.132   9.789   1.987 -0.4048  0.3323 -0.7095
   76UDC     C2  827   4.120   9.939   1.988  0.4895  0.4246 -0.2480
   76UDC     C3  828   4.091   9.974   1.839 -0.0742 -0.8870  0.3576
   76UDC     C4  829   4.061  10.126   1.813 -0.1823  0.1052 -0.6791
   76UDC     C5  830   4.032  10.143   1.659 -0.9544 -1.2805  0.5822
   76UDC     C6  831   4.157  10.139   1.571  0.5508  1.0851 -0.4721
   76UDC     C7  832   4.137  10.172   1.421 -0.1078  1.0681 -1.1555
   76UDC     C8  833   4.063  10.060   1.343  0.7162 -0.0806 -0.3847
   76UDC     C9  834   4.105   9.913   1.373  0.5120  0.1131  0.0212
   76UDC    C10  835   4.099   9.824   1.247  0.9546 -0.9625  0.7556
   76UDC    C11  836   4.087   9.679   1.299  0.0024  0.1582  0.7326
   77UDC     C1  837   6.113   1.350  10.501  0.2721 -0.6300  0.6453
   77UDC     C2  838   6.132   1.505  10.480 -0.0967  0.3774  0.8833
   77UDC     C3  839   6.045   1.552  10.366  0.9101  0.5443  0.5753
   77UDC     C4  840   6.037   1.704  10.341  0.8429  0.1869  0.7030
   77UDC     C5  841   6.174   1.754  10.302 -0.5679  0.1631 -1.4061
   77UDC     C6  842   6.242   1.700  10.179 -0.4848 -0.2779 -0.3229
   77UDC     C7  843   6.169   1.725  10.048  0.1283  0.1460  0.0201
   77UDC     C8  844   6.163   1.867  10.004 -0.8248  0.0334 -0.7958
   77UDC     C9  845   6.159   1.886   9.854  0.5278 -0.2428 -1.6300
   77UDC    C10  846   6.108   2.029   9.818  1.3378  0.0504 -0.4760
   77UDC    C11  847   6.126   2.064   9.670  0.4416  0.3712 -1.3561
   78UDC     C1  848   7.720   8.431  13.585  0.4655 -0.4547 -1.4061
   78UDC     C2  849   7.758   8.347  13.712  0.3369  0.0769 -0.1636
   78UDC     C3  850   7.904   8.296  13.710 -0.5304  0.4367  0.1251
   78UDC     C4  851   7.954   8.239  13.848  0.8290 -0.4713  0.4482
   78UDC     C5  852   8.102   8.214  13.878 -0.3788  0.5194 -0.2867
   78UDC     C6  853   8.182   8.284  13.997  0.4659 -1.1244  0.0939
   78UDC     C7  854   8.190   8.431  13.947  0.6088  0.6516  0.1257
   78UDC     C8  855   8.248   8.527  14.051  0.1217  0.3172 -0.3189
   78UDC     C9  856   8.153   8.560  14.166 -0.2650  0.1293 -0.7072
   78UDC    C10  857   8.228   8.633  14.278  0.0482 -0.5421 -0.3008
   78UDC    C11  858   8.154   8.654  14.406 -0.0728 -0.2370  0.1030
   79UDC     C1  859   2.781  10.318  19.477 -0.3975  0.8453 -0.5629
   79UDC     C2  860   2.903  10.242  19.411 -0.1417  0.4409  0.3260
   79UDC     C3  861   2.966  10.346  19.310  0.4326 -0.0465 -0.7560
   79UDC     C4  862   3.051  10.449  19.396 -0.1219  0.7878  0.7234
   79UDC     C5  863   3.145  10.366  19.484 -0.4720 -0.3607  0.7857
   79UDC     C6  864   3.152  10.397  19.632 -0.2161  0.0857 -0.7742
   79UDC     C7  865   3.149  10.257  19.704  1.0963 -0.7079 -0.1712
   79UDC     C8  866   3.279  10.173  19.704  0.3246  0.4703  1.0479
   79UDC     C9  867   3.287  10.022  19.742  0.5973 -1.4645 -0.4767
   79UDC    C10  868   3.432   9.978  19.707  0.3120 -0.8689 -0.4337
   79UDC    C11  869   3.443   9.826  19.694  0.3582  0.0553  0.3909
   80UDC     C1  870  13.269  12.136   7.506  0.4615 -0.0510  0.2186
   80UDC     C2  871  13.255  12.249   7.399  0.0083 -0.1918  0.3241
   80UDC     C3  872  13.387  12.331   7.383 -0.4038 -0.3330  0.2568
   80UDC     C4  873  13.434  12.365   7.526 -0.0183  0.2085  0.5654
   80UDC     C5  874  13.561  12.447   7.531 -1.1928  0.1671  0.0068
   80UDC     C6  875  13.574  12.518   7.667  0.0030  0.7223  0.8626
   80UDC     C7  876  13.446  12.594   7.699 -0.0682 -0.0134 -1.2411
   80UDC     C8  877  13.462  12.676   7.833  0.1568 -0.5759 -0.0368
   80UDC     C9  878  13.588  12.762   7.838 -0.3833  0.5401 -0.4411
   80UDC    C10  879  13.635  12.868   7.941  0.2153 -0.0910  0.2853
   80UDC    C11  880  13.582  12.860   8.090  0.1312  0.0656  0.0365
   81UDC     C1  881   2.506   6.402   7.026 -0.3342  0.1119 -0.2895
   81UDC     C2  882   2.491   6.512   6.911  0.1871 -1.1051  0.2857
   81UDC     C3  883   2.442   6.649   6.952 -0.1331 -0.7298  0.4305
   81UDC     C4  884   2.411   6.749   6.834 -0.0356  0.4980 -0.6844
   81UDC     C5  885   2.275   6.817   6.872  0.5970  0.9439  0.0063
   81UDC     C6  886   2.158   6.755   6.788 -0.4103 -0.4320 -0.5186
   81UDC     C7  887   2.019   6.756   6.867  0.4108 -0.0195 -0.0658
   81UDC     C8  888   1.909   6.719   6.775 -0.8500  0.1850  0.9340
   81UDC     C9  889   1.798   6.638   6.838 -0.0911  0.0267  1.2859
   81UDC    C10  890   1.839   6.526   6.926  1.2287  0.0815  0.7639
   81UDC    C11  891   1.929   6.413   6.862 -0.0878 -0.1865 -0.8477
   82UDC     C1  892   5.717  13.454  17.925 -0.9818  0.3045  1.0279
   82UDC     C2  893   5.834  13.484  17.823 -0.6860  0.0012 -0.0076
   82UDC     C3  894   5.936  13.597  17.850  0.8117  0.8505  0.6633
   82UDC     C4  895   6.069  13.566  17.782 -0.5397 -0.1117 -0.7771
   82UDC     C5  896   6.188  13.635  17.862  0.2231 -0.6722 -0.1982
   82UDC     C6  897   6.312  13.549  17.899 -0.6900  0.3831 -0.3483
   82UDC     C7  898   6.291  13.410  17.951  0.5139  0.9173 -0.0848
   82UDC     C8  899   6.208  13.394  18.084 -0.9526 -0.4534 -0.4824
   82UDC     C9  900   6.208  13.254  18.149  0.1415  0.6853  0.3322
   82UDC    C10  901   6.094  13.219  18.247 -0.9181 -0.1451  0.7120
   82UDC    C11  902   5.948  13.253  18.208  0.2127  0.2055  0.2596
   83UDC     C1  903   5.087  15.402  11.918 -0.2945  0.2497 -0.2938
   83UDC     C2  904   5.224  15.392  11.840  0.0605 -0.2523 -1.0306
   83UDC     C3  905   5.232  15.339  11.698  0.9607 -1.1678 -0.0423
   83UDC     C4  906   5.219  15.184  11.694  1.2606  0.0053 -0.5190
   83UDC     C5  907   5.252  15.109  11.553  0.3576 -0.4073 -1.6728
   83UDC     C6  908   5.285  14.956  11.578  0.4185  0.2805 -1.1218
   83UDC     C7  909   5.259  14.844  11.470  0.4639 -0.7649  0.3486
   83UDC     C8  910   5.343  14.851  11.333 -0.4488 -0.2820 -0.0510
   83UDC     C9  911   5.338  14.727  11.249 -0.5930  0.5943 -1.2696
   83UDC    C10  912   5.453  14.627  11.284  1.2512  0.0993  0.6157
   83UDC    C11  913   5.591  14.674  11.235 -0.6724 -0.9239 -0.8494
   84UDC     C1  914  11.982   1.999  18.528  0.2535  0.5030 -0.4374
   84UDC     C2  915  12.030   2.041  18.382 -1.2506  0.4549  0.5849
   84UDC     C3  916  11.956   1.997  18.269  0.0431 -0.8483  0.9832
   84UDC     C4  917  12.011   2.074  18.138 -0.8575  1.2021 -0.9060
   84UDC     C5  918  12.159   2.049  18.089 -0.2535  1.3138 -0.8853
   84UDC     C6  919  12.209   2.093  17.946  0.4426 -0.1138 -0.5940
   84UDC     C7  920  12.224   2.245  17.942  0.0292  0.1728 -0.4642
   84UDC     C8  921  12.252   2.299  17.800 -0.2621 -0.1221 -0.2735
   84UDC     C9  922  12.295   2.447  17.808 -0.4130  0.9213 -0.0422
   84UDC    C10  923  12.198   2.542  17.865 -0.0326  0.0543  0.3143
   84UDC    C11  924  12.141   2.648  17.765  0.6285  0.6023  0.5958
   85UDC     C1  925  13.341   9.420   0.499  0.7766 -0.3456 -0.8439
   85UDC     C2  926  13.440   9.368   0.603 -0.1945 -1.1684  0.2013
   85UDC     C3  927  13.554   9.283   0.545  0.5795 -0.4788  0.1308
   85UDC     C4  928  13.650   9.246   0.654 -0.2864 -0.2000  0.2181
   85UDC     C5  929  13.760   9.154   0.600 -0.7761 -0.0142  0.4345
   85UDC     C6  930  13.840   9.084   0.715 -0.2816 -0.2248  0.0357
   85UDC     C7  931  13.842   9.152   0.856  1.2963  0.9286 -0.2144
   85UDC     C8  932  13.893   9.047   0.963  0.6580 -1.3971 -0.0021
   85UDC     C9  933  14.007   8.956   0.926 -0.0319 -0.2326 -0.2869
   85UDC    C10  934  14.020   8.845   1.027 -0.7682 -0.7338 -0.7953
   85UDC    C11  935  14.136   8.745   1.003  0.1620  0.8724 -0.8076
   86UDC     C1  936  19.703  10.743  16.547 -0.3575 -0.0331  0.6825
   86UDC     C2  937  19.630  10.697  16.414 -0.1383 -0.5290 -0.4327
   86UDC     C3  938  19.489  10.662  16.430 -0.6149  0.2983 -0.4128
   86UDC     C4  939  19.452  10.675  16.577 -0.3612 -0.0598 -0.4014
   86UDC     C5  940  19.323  10.591  16.598 -0.8075 -0.5288  1.1784
   86UDC     C6  941  19.306  10.568  16.752 -0.2842 -0.3564  0.2998
   86UDC     C7  942  19.279  10.698  16.825  0.5024  0.5073 -0.1404
   86UDC     C8  943  19.377  10.800  16.898 -1.2243  0.5004  0.8500
   86UDC     C9  944  19.488  10.732  16.986  1.0539  0.1529  0.3178
   86UDC    C10  945  19.626  10.791  17.004 -0.6179  0.7565  0.9742
   86UDC    C11  946  19.711  10.696  17.098  0.4497  0.1770  0.3777
   87UDC     C1  947  11.279  10.553  13.284  0.4514  0.5602 -0.0796
   87UDC     C2  948  11.323  10.586  13.136 -0.9965  0.4250  1.2594
   87UDC     C3  949  11.235  10.689  13.065  0.6386 -0.5380 -0.0529
   87UDC     C4  950  11.265  10.828  13.116  0.8952 -1.4445 -1.0466
   87UDC     C5  951  11.267  10.945  13.014 -0.1587 -0.0530  0.0091
   87UDC     C6  952  11.361  10.909  12.903 -1.7623 -0.5215 -0.4007
   87UDC     C7  953  11.378  11.014  12.802  0.5256 -0.5409  0.2187
   87UDC     C8  954  11.495  10.974  12.698 -0.6409  1.1411 -0.1616
   87UDC     C9  955  11.526  11.064  12.577  0.4961 -0.1519 -0.6966
   87UDC    C10  956  11.636  11.014  12.482  0.3010  1.5494 -0.7945
   87UDC    C11  957  11.781  11.026  12.531 -0.1839  0.0844 -0.8172
   88UDC     C1  958  16.376  18.594  18.149 -0.5497  0.1950 -0.1996
   88UDC     C2  959  16.407  18.743  18.198  1.2593  0.6272  1.1492
   88UDC     C3  960  16.299  18.768  18.307  1.4373 -0.7620  0.4689
   88UDC     C4  961  16.331  18.695  18.439  0.0297  0.9650  0.3180
   88UDC     C5  962  16.479  18.715  18.485 -0.2732  0.2203  0.2895
   88UDC     C6  963  16.498  18.632  18.616  0.4221 -0.1929 -0.7122
   88UDC     C7  964  16.502  18.480  18.611 -0.2060  0.1564 -0.4006
   88UDC     C8  965  16.629  18.412  18.542  0.6030 -0.4884 -0.9663
   88UDC     C9  966  16.603  18.264  18.515 -0.3511  0.2335  0.3918
   88UDC    C10  967  16.480  18.237  18.426  0.1497  0.9644 -0.1583
   88UDC    C11  968  16.418  18.092  18.454  0.2640  0.2437  0.1894
   89UDC     C1  969   4.485  15.915  14.282 -0.3727 -0.4441 -0.5114
   89UDC     C2  970   4.453  16.025  14.385 -0.6229 -1.0874 -0.7571
   89UDC     C3  971   4.481  15.978  14.530  1.0401  0.2361  0.1719
   89UDC     C4  972   4.486  16.096  14.625 -0.5815 -0.7073  0.1063
   89UDC     C5  973   4.354  16.134  14.683 -0.6342  1.2745 -0.5592
   89UDC     C6  974   4.296  16.041  14.790  0.5534 -0.9603 -1.1641
   89UDC     C7  975   4.376  16.032  14.925 -0.9906 -0.2232 -0.3638
   89UDC     C8  976   4.402  16.162  15.004  0.4791  0.9085 -2.0044
   89UDC     C9  977   4.452  16.139  15.144  0.0005  0.0401 -0.6851
   89UDC    C10  978   4.581  16.050  15.151  0.3027  0.0979  0.6425
   89UDC    C11  979   4.627  16.046  15.297 -0.2648  0.9801 -0.7292
   90UDC     C1  980   1.120   4.218  12.288 -0.0336 -0.1621 -0.2112
   90UDC     C2  981   1.004   4.136  12.348 -0.8239  0.7463  0.2080
   90UDC     C3  982   0.921   4.220  12.451 -0.6252 -0.8530 -0.6777
   90UDC     C4  983   0.820   4.309  12.386 -1.1586 -0.1665 -0.4420
   90UDC     C5  984   0.683   4.257  12.347  0.4011 -0.1629  0.2074
   90UDC     C6  985   0.574   4.340  12.289  0.5481  0.8588  0.1215
   90UDC     C7  986   0.571   4.377  12.141  0.4620 -0.5637  0.1619
   90UDC     C8  987   0.425   4.390  12.100  1.0007 -0.2446  0.0758
   90UDC     C9  988   0.393   4.494  11.988  0.2163  0.3201 -0.2576
   90UDC    C10  989   0.404   4.456  11.838  0.3444 -0.9934 -0.8910
   90UDC    C11  990   0.346   4.554  11.736 -1.3117 -0.8078 -0.3901
   91UDC     C1  991  14.516   2.235   8.316 -0.3847  0.2754  0.0866
   91UDC     C2  992  14.489   2.244   8.470  0.5695  0.3105  0.0877
   91UDC     C3  993  14.446   2.114   8.538 -0.3104  0.8066 -0.3067
   91UDC     C4  994  14.548   2.001   8.533  0.7791 -0.7923 -0.5543
   91UDC     C5  995  14.596   1.955   8.683 -0.7922  0.8559  0.4408
   91UDC     C6  996  14.721   1.860   8.660 -0.3425  0.1584 -0.3588
   91UDC     C7  997  14.796   1.810   8.782  0.3648  1.0065  0.3158
   91UDC     C8  998  14.843   1.664   8.763  0.0090  1.2514 -0.2694
   91UDC     C9  999  14.752   1.543   8.750 -0.2106  0.1022 -0.0513
   91UDC    C10 1000  14.803   1.410   8.683 -0.6401  1.3592  0.5652
   91UDC    C11 1001  14.900   1.348   8.782  0.2915 -0.1823 -0.0361
   92UDC     C1 1002  12.817  12.030   4.080 -0.1804  0.6076 -0.4477
   92UDC     C2 1003  12.828  12.184   4.087 -0.0344  0.6697 -1.1143
   92UDC     C3 1004  12.886  12.257   4.208 -0.4894 -0.0055 -0.0649
   92UDC     C4 1005  13.032  12.214   4.246 -0.2400  0.1561  0.4261
   92UDC     C5 1006  13.057  12.310   4.368 -0.2846  0.6732  1.1604
   92UDC     C6 1007  12.932  12.377   4.405 -0.3067  0.4160  0.2109
   92UDC     C7 1008  12.892  12.405   4.554 -0.4100 -0.8744  0.7311
   92UDC     C8 1009  12.733  12.408   4.555  0.1211  0.5779  0.3613
   92UDC     C9 1010  12.679  12.446   4.692  0.2554  0.0937 -0.7140
   92UDC    C10 1011  12.529  12.430   4.721 -0.0148  0.2570 -0.1368
   92UDC    C11 1012  12.443  12.471   4.607  0.6014 -1.3548  0.1303
   93UDC     C1 1013   6.019  14.643  18.582  0.0384  0.0376 -0.7268
   93UDC     C2 1014   6.075  14.714  18.703 -0.1827 -0.2807  0.7921
   93UDC     C3 1015   6.228  14.748  18.688  1.4598 -1.1472 -0.0968
   93UDC     C4 1016   6.272  14.801  18.547  1.0878 -0.2783  0.2471
   93UDC     C5 1017   6.387  14.906  18.562  0.5653  0.3756  0.0135
   93UDC     C6 1018   6.514  14.825  18.537  0.4045 -0.8027 -0.5794
   93UDC     C7 1019   6.648  14.901  18.531 -0.4087 -0.3107 -1.3083
   93UDC     C8 1020   6.764  14.806  18.542 -0.8182 -0.6280  0.7873
   93UDC     C9 1021   6.899  14.871  18.577  0.3903 -0.4112  0.2254
   93UDC    C10 1022   6.946  14.795  18.704 -0.2022 -0.0137 -0.2434
   93UDC    C11 1023   6.982  14.647  18.682 -1.1158  0.1959 -0.3542
   94UDC     C1 1024   0.795   7.353  16.773  0.1314  0.9528  0.5011
   94UDC     C2 1025   0.680   7.329  16.886 -0.4029  0.0027 -0.3400
   94UDC     C3 1026   0.717   7.367  17.031  0.9743 -0.2545  0.4979
   94UDC     C4 1027   0.749   7.249  17.121 -0.2125  0.1666 -0.6000
   94UDC     C5 1028   0.886   7.190  17.077  0.7671  0.4543  0.4738
   94UDC     C6 1029   0.976   7.138  17.193  0.6384  0.3809 -0.5614
   94UDC     C7 1030   0.925   7.028  17.283  0.3308  0.0635 -0.8970
   94UDC     C8 1031   1.016   7.014  17.407  0.8159  0.1272 -0.5466
   94UDC     C9 1032   0.960   6.938  17.529 -0.2519  0.0976  0.7224
   94UDC    C10 1033   1.011   6.984  17.666  0.5615 -1.2133 -0.1880
   94UDC    C11 1034   0.913   7.086  17.730  0.5015  0.4593  0.1083
   95UDC     C1 1035   3.485   3.494  16.858 -0.1241 -0.2145  0.0090
   95UDC     C2 1036   3.501   3.369  16.950  0.3193  0.0852  0.7518
   95UDC     C3 1037   3.422   3.249  16.886 -0.3682 -0.5940 -1.0675
   95UDC     C4 1038   3.323   3.168  16.975  0.3193  0.2569  0.0725
   95UDC     C5 1039   3.186   3.232  17.014  0.5639 -0.6297  0.9271
   95UDC     C6 1040   3.106   3.154  17.121  0.2354 -0.3774 -0.2907
   95UDC     C7 1041   2.982   3.088  17.053 -0.8067 -0.4910 -0.9015
   95UDC     C8 1042   3.021   2.966  16.962  0.5762  0.3870 -0.2730
   95UDC     C9 1043   2.897   2.903  16.901  0.2344 -0.2270  0.0923
   95UDC    C10 1044   2.923   2.767  16.842 -0.2212 -0.5063  0.6121
   95UDC    C11 1045   2.944   2.654  16.948  0.9633 -0.5997  0.7803
   96UDC     C1 1046  18.977  11.810   1.930 -0.3642 -1.1428 -1.1666
   96UDC     C2 1047  19.066  11.757   1.812 -0.1080  1.3814  0.4024
   96UDC     C3 1048  19.208  11.815   1.835 -0.0932 -0.0718 -0.9107
   96UDC     C4 1049  19.323  11.771   1.749 -0.0361  0.4417  0.1231
   96UDC     C5 1050  19.441  11.869   1.736 -1.6638 -0.8182 -0.9480
   96UDC     C6 1051  19.402  12.000   1.671 -0.6563  0.9461  0.7547
   96UDC     C7 1052  19.485  12.121   1.720 -1.2120 -0.4566  1.1440
   96UDC     C8 1053  19.447  12.261   1.689 -0.2548 -0.8082  0.2193
   96UDC     C9 1054  19.551  12.290   1.568 -0.1826 -0.3013  0.0444
   96UDC    C10 1055  19.695  12.270   1.614 -0.9485 -0.2381  0.1119
   96UDC    C11 1056  19.787  12.387   1.575 -0.3846 -0.3833 -0.5403
   97UDC     C1 1057   4.223  15.559  14.356  0.8411 -1.1096 -0.9103
   97UDC     C2 1058   4.312  15.458  14.418  0.1779 -0.4672 -0.0320
   97UDC     C3 1059   4.293  15.435  14.570  0.4401  0.7581  0.0698
   97UDC     C4 1060   4.363  15.307  14.620  0.2591  0.7406  0.2686
   97UDC     C5 1061   4.354  15.195  14.517 -0.0950  0.1676  0.4748
   97UDC     C6 1062   4.425  15.058  14.552 -0.3521  0.3237 -0.2877
   97UDC     C7 1063   4.503  14.972  14.445 -0.0191  0.3674  0.7257
   97UDC     C8 1064   4.655  14.963  14.490 -0.4308 -0.0179  1.2375
   97UDC     C9 1065   4.772  14.958  14.384 -0.8910  0.2992  0.9628
   97UDC    C10 1066   4.774  15.030  14.246  0.1250 -0.5520  1.0890
   97UDC    C11 1067   4.879  15.015  14.126  0.1258  0.7422 -1.3989
   98UDC     C1 1068   2.271  17.870   1.938  0.2715 -0.0914  0.0894
   98UDC     C2 1069   2.365  17.818   1.830 -1.1802  0.5078  0.9052
   98UDC     C3 1070   2.279  17.754   1.721 -0.2569 -0.5274 -0.6858
   98UDC     C4 1071   2.340  17.696   1.589  0.0713 -0.4422 -1.1910
   98UDC     C5 1072   2.439  17.584   1.592 -0.2069  1.0400 -0.5908
   98UDC     C6 1073   2.366  17.450   1.588  1.0850 -0.8554  0.4548
   98UDC     C7 1074   2.449  17.332   1.551 -0.5940  1.0157  0.4511
   98UDC     C8 1075   2.379  17.216   1.615  0.2144 -0.6447 -0.3855
   98UDC     C9 1076   2.468  17.093   1.615  0.6072 -0.4112 -0.1266
   98UDC    C10 1077   2.580  17.127   1.517 -0.4118  0.4460  0.7372
   98UDC    C11 1078   2.597  17.026   1.401 -1.0110 -0.0159  0.4919
   99UDC     C1 1079  16.914   8.036   9.767  0.3438 -1.5889 -0.4107
   99UDC     C2 1080  17.029   8.089   9.863  0.9035  0.2461  0.6745
   99UDC     C3 1081  17.017   8.027  10.007 -0.5241 -0.3978  1.2060
   99UDC     C4 1082  17.161   8.024  10.059  0.8101  0.4041 -0.9526
   99UDC     C5 1083  17.253   7.906  10.027  0.9032  0.0853  0.7177
   99UDC     C6 1084  17.377   7.916  10.119 -0.3022 -0.0691  0.1360
   99UDC     C7 1085  17.478   7.805  10.089  1.0367  0.3159 -0.3314
   99UDC     C8 1086  17.410   7.666  10.098 -0.7911 -0.3229  0.1830
   99UDC     C9 1087  17.504   7.579  10.008 -0.1020 -0.1245  0.2705
   99UDC    C10 1088  17.628   7.542  10.079 -0.8008  0.1027  0.4627
   99UDC    C11 1089  17.596   7.472  10.213  0.8518 -0.0184 -0.7943
  100UDC     C1 1090  15.427  12.873  12.630  0.7136  0.3233  0.8922
  100UDC     C2 1091  15.495  12.991  12.553  1.5059 -0.4030  0.2416
  100UDC     C3 1092  15.584  13.055  12.659 -0.4955  0.3204  0.1554
  100UDC     C4 1093  15.721  12.990  12.680  0.9430 -0.6831  0.8686
  100UDC     C5 1094  15.783  13.025  12.818 -0.5883 -0.3547  0.5719
  100UDC     C6 1095  15.937  12.987  12.847  0.4877 -0.7465  0.0663
  100UDC     C7 1096  15.977  12.842  12.808 -0.6267  0.7525  0.0136
  100UDC     C8 1097  16.104  12.793  12.894  0.3287  0.4741  0.9454
  100UDC     C9 1098  16.077  12.795  13.041  0.5511  0.0973 -0.7956
  100UDC    C10 1099  16.185  12.858  13.129  0.0129  0.7022  0.1036
  100UDC    C11 1100  16.166  12.855  13.280  0.5683 -0.6881  0.5900
  101UDC     C1 1101   3.875  11.319  13.275 -0.7129  0.7807 -0.4504
  101UDC     C2 1102   3.862  11.405  13.147  0.3317 -0.4886 -0.8889
  101UDC     C3 1103   3.903  11.552  13.146  0.8414 -0.3860  0.0835
  101UDC     C4 1104   4.055  11.552  13.171 -0.0963 -0.0625 -0.3796
  101UDC     C5 1105   4.127  11.685  13.190  0.2692 -0.8551  0.4160
  101UDC     C6 1106   4.277  11.674  13.215 -0.5160  0.8479 -1.4050
  101UDC     C7 1107   4.361  11.791  13.278 -0.0344  0.8819 -0.3181
  101UDC     C8 1108   4.311  11.934  13.255  0.3497  0.1321 -1.1137
  101UDC     C9 1109   4.363  12.052  13.327  1.2298  0.1527 -0.4869
  101UDC    C10 1110   4.392  12.179  13.257 -0.6395 -0.7347  0.0632
  101UDC    C11 1111   4.354  12.302  13.340  0.0308  0.6521  0.1437
  102UDC     C1 1112  13.607  18.364  11.149  0.6282  0.8932  1.1557
  102UDC     C2 1113  13.582  18.499  11.212  0.0102 -0.6038  1.0214
  102UDC     C3 1114  13.619  18.626  11.120  0.3483 -0.8836 -0.7535
  102UDC     C4 1115  13.742  18.709  11.146 -0.0404  0.4233 -0.5156
  102UDC     C5 1116  13.881  18.658  11.093  0.0533  0.1601  0.8497
  102UDC     C6 1117  13.887  18.525  11.003 -0.7651 -0.5722 -0.6243
  102UDC     C7 1118  14.029  18.504  10.944 -0.3469  0.7263  1.2577
  102UDC     C8 1119  14.125  18.474  11.060 -0.0712  0.4774 -0.3408
  102UDC     C9 1120  14.269  18.523  11.044  0.4541  0.1995  0.6405
  102UDC    C10 1121  14.347  18.455  10.925  0.1189  0.1549  0.5108
  102UDC    C11 1122  14.345  18.303  10.903  0.7489 -0.2303 -0.1035
  103UDC     C1 1123  11.709  16.060   0.323 -0.4891 -0.0107 -0.0918
  103UDC     C2 1124  11.604  16.137   0.397  0.4238  0.0366  0.3034
  103UDC     C3 1125  11.675  16.241   0.491  0.0484  0.3180  0.5432
  103UDC     C4 1126  11.582  16.294   0.601  0.3994  0.3266  1.2259
  103UDC     C5 1127  11.458  16.349   0.525  1.2380  1.0825  0.5376
  103UDC     C6 1128  11.434  16.462   0.421 -0.2104  0.2055  0.0865
  103UDC     C7 1129  11.290  16.462   0.377  0.1847 -1.9044  0.8730
  103UDC     C8 1130  11.274  16.340   0.278  0.7251  0.3142 -0.2254
  103UDC     C9 1131  11.123  16.326   0.242 -0.2640 -0.5386  0.4268
  103UDC    C10 1132  11.078  16.283   0.102  0.6659  0.0542 -0.6907
  103UDC    C11 1133  11.121  16.154   0.049  1.2237  1.4061 -1.1929
  104UDC     C1 1134   9.636  16.287   9.701 -1.0709  0.2795 -0.3539
  104UDC     C2 1135   9.656  16.140   9.673 -0.3518 -0.8847 -1.1072
  104UDC     C3 1136   9.555  16.046   9.740 -0.7246  0.2425  0.5182
  104UDC     C4 1137   9.525  15.921   9.652  0.4604  0.7787  1.1218
  104UDC     C5 1138   9.405  15.941   9.561  0.6230 -0.1099  1.2277
  104UDC     C6 1139   9.265  15.904   9.620  0.3670  0.2352 -0.7052
  104UDC     C7 1140   9.260  15.765   9.680  1.1802  0.1841  0.7254
  104UDC     C8 1141   9.118  15.718   9.714  0.1761  0.4156  1.1896
  104UDC     C9 1142   9.134  15.595   9.794  0.0399 -0.2022 -0.6923
  104UDC    C10 1143   9.206  15.617   9.928  0.4041 -0.5696  0.7072
  104UDC    C11 1144   9.193  15.488  10.013 -0.1307  0.2127 -0.1212
  105UDC     C1 1145  19.619   7.394   4.052 -0.4497  0.1769  0.2343
  105UDC     C2 1146  19.691   7.516   4.090 -1.4026  0.0209  0.2278
  105UDC     C3 1147  19.834   7.475   4.127  0.1050 -0.2775 -1.0819
  105UDC     C4 1148  19.914   7.417   4.008  0.4452  0.3653  0.4039
  105UDC     C5 1149  20.061   7.450   4.012  0.3114 -0.1749 -1.4274
  105UDC     C6 1150  20.140   7.334   4.083 -0.0032  0.1613 -0.9322
  105UDC     C7 1151  20.290   7.335   4.064 -0.2158  1.2165  0.3162
  105UDC     C8 1152  20.325   7.226   3.957  0.6759 -0.9688 -0.1954
  105UDC     C9 1153  20.319   7.286   3.813  0.3422 -0.0002 -0.6715
  105UDC    C10 1154  20.296   7.156   3.729 -0.3034 -0.2007  0.3723
  105UDC    C11 1155  20.291   7.177   3.577  0.4938  1.3088 -0.2595
  106UDC     C1 1156  19.153  12.009  11.699  1.0390  0.1546  0.5642
  106UDC     C2 1157  19.158  11.898  11.800 -0.8419  0.6244  0.1533
  106UDC     C3 1158  19.024  11.844  11.841  0.5976  1.0927  0.3572
  106UDC     C4 1159  18.996  11.917  11.976 -0.0352  0.9279 -0.3073
  106UDC     C5 1160  18.844  11.922  12.000 -0.1701 -0.3663  0.0942
  106UDC     C6 1161  18.770  11.947  11.869  0.0171  1.4382  0.4607
  106UDC     C7 1162  18.627  11.894  11.859  0.0551 -0.7075 -0.2338
  106UDC     C8 1163  18.524  12.002  11.798 -0.2214  0.0398 -0.6619
  106UDC     C9 1164  18.514  12.130  11.880  0.1571 -0.5530 -0.6833
  106UDC    C10 1165  18.479  12.275  11.821 -0.3816 -0.1596  0.7482
  106UDC    C11 1166  18.359  12.276  11.737  0.9189 -0.1714  0.6416
  107UDC     C1 1167  19.761   4.362  19.758  0.1666 -0.2283  0.4159
  107UDC     C2 1168  19.872   4.268  19.793  0.3542  0.4439  0.5751
  107UDC     C3 1169  19.961   4.220  19.669 -1.3353  0.1626 -0.5907
  107UDC     C4 1170  20.100   4.157  19.699 -0.1361 -0.1581 -0.1471
  107UDC     C5 1171  20.205   4.256  19.758  0.3825 -0.4447  0.4387
  107UDC     C6 1172  20.306   4.322  19.658  0.5619  1.0019 -0.0179
  107UDC     C7 1173  20.396   4.417  19.728  0.3392  0.6427 -0.1175
  107UDC     C8 1174  20.440   4.523  19.628  0.4227  0.5370  0.6986
  107UDC     C9 1175  20.477   4.679  19.668 -0.3849  0.8261 -0.0164
  107UDC    C10 1176  20.456   4.787  19.556  0.9035 -0.5263 -0.0608
  107UDC    C11 1177  20.523   4.924  19.583  0.1679  0.2465 -0.5819
  108UDC     C1 1178   2.361  13.283  19.237 -0.5150  0.3111  0.4551
  108UDC     C2 1179   2.492  13.341  19.291 -0.4370  1.1030  0.1352
  108UDC     C3 1180   2.540  13.270  19.423 -0.7625  0.0933  0.7135
  108UDC     C4 1181   2.700  13.263  19.427  1.0664 -0.0896 -0.5867
  108UDC     C5 1182   2.735  13.175  19.547  0.6705  0.3789 -0.2019
  108UDC     C6 1183   2.875  13.166  19.605 -0.2796  0.2621 -0.1426
  108UDC     C7 1184   2.936  13.283  19.690 -0.3941 -0.5818  0.3907
  108UDC     C8 1185   2.846  13.322  19.810  1.0009  1.2825 -0.0972
  108UDC     C9 1186   2.838  13.211  19.924  0.2958 -0.2993  0.1311
  108UDC    C10 1187   2.896  13.282  20.050  0.6036 -0.1376  0.6699
  108UDC    C11 1188   2.944  13.176  20.146 -0.7232 -0.0243 -0.4023
  109UDC     C1 1189  12.431   4.902   5.669  1.4055 -0.5014 -0.0908
  109UDC     C2 1190  12.432   4.833   5.809  0.1848  0.5640 -0.2704
  109UDC     C3 1191  12.539   4.728   5.794  0.3685 -0.5112  0.1107
  109UDC     C4 1192  12.601   4.680   5.925  1.2547  0.6398 -0.3687
  109UDC     C5 1193  12.692   4.562   5.872 -0.4735 -0.9681 -0.0581
  109UDC     C6 1194  12.776   4.500   5.993  0.2737  0.8138 -0.4785
  109UDC     C7 1195  12.840   4.354   5.981  0.7515  1.2000  0.2131
  109UDC     C8 1196  12.978   4.344   5.912 -0.1395  0.5467 -0.1765
  109UDC     C9 1197  13.018   4.195   5.909  0.0722  0.3366  0.5138
  109UDC    C10 1198  13.039   4.124   6.038  0.0146  1.3763 -0.3415
  109UDC    C11 1199  13.009   3.976   6.027 -0.9056 -0.4851 -0.5954
  110UDC     C1 1200  18.454  16.356  13.605  0.3929 -0.4732 -1.5996
  110UDC     C2 1201  18.550  16.437  13.694  1.0015  0.1843  0.0270
  110UDC     C3 1202  18.699  16.436  13.649  0.1436 -1.8973  0.3728
  110UDC     C4 1203  18.780  16.313  13.700 -0.5255 -0.5306  0.0187
  110UDC     C5 1204  18.759  16.305  13.851 -0.4085 -0.1287  0.9201
  110UDC     C6 1205  18.684  16.174  13.880  0.4519  0.7901  1.4385
  110UDC     C7 1206  18.727  16.059  13.789  0.6669 -1.5668 -0.2763
  110UDC     C8 1207  18.698  15.911  13.830  0.5449  0.4600 -0.2822
  110UDC     C9 1208  18.581  15.900  13.928 -0.7783  0.5242 -0.5434
  110UDC    C10 1209  18.556  15.763  13.995  0.4544 -0.3906  0.4481
  110UDC    C11 1210  18.692  15.692  14.016 -0.0308  0.7774  0.3157
  111UDC     C1 1211   2.298   3.868  11.513  0.0700 -0.2628 -0.5087
  111UDC     C2 1212   2.216   3.912  11.636 -0.3354  0.1590 -0.7235
  111UDC     C3 1213   2.208   3.825  11.760  0.8539 -0.5512 -0.2584
  111UDC     C4 1214   2.150   3.902  11.882  0.5157  0.1943  0.2799
  111UDC     C5 1215   2.072   3.805  11.977 -0.5262  0.0384  0.3356
  111UDC     C6 1216   2.017   3.880  12.099 -0.5739 -0.2741 -0.8960
  111UDC     C7 1217   1.910   3.794  12.172 -0.3131  0.3391  0.7198
  111UDC     C8 1218   1.780   3.781  12.094  0.4168 -0.7969  1.1745
  111UDC     C9 1219   1.645   3.758  12.157 -0.6670  0.7871  0.4877
  111UDC    C10 1220   1.522   3.812  12.083 -1.1795  1.6707  0.3057
  111UDC    C11 1221   1.524   3.812  11.933 -0.3304  0.2167 -0.2126
  112UDC     C1 1222   7.977  16.928   9.111  0.5934  0.6682 -0.2784
  112UDC     C2 1223   7.868  16.935   9.220  0.0671  0.6156 -0.4488
  112UDC     C3 1224   7.754  16.831   9.204 -0.2695 -0.0735 -0.0992
  112UDC     C4 1225   7.649  16.850   9.317 -0.9226 -0.3562 -0.2158
  112UDC     C5 1226   7.712  16.833   9.457  0.0782 -0.3732 -1.0787
  112UDC     C6 1227   7.597  16.849   9.562  0.9454  0.4208  1.1397
  112UDC     C7 1228   7.628  16.794   9.700  0.0852  0.2065 -0.3780
  112UDC     C8 1229   7.593  16.898   9.817 -0.1950  0.2228  0.4750
  112UDC     C9 1230   7.565  16.830   9.947 -0.0298  0.5123 -0.6637
  112UDC    C10 1231   7.524  16.908  10.074 -1.2596  0.5675 -0.1183
  112UDC    C11 1232   7.495  16.828  10.203  0.1927 -0.3269 -0.0264
  113UDC     C1 1233  13.583  12.614  12.227  0.2418  0.0753  0.6973
  113UDC     C2 1234  13.541  12.496  12.130  0.2071 -1.2168 -1.0139
  113UDC     C3 1235  13.589  12.357  12.175  1.0701 -0.9664 -0.6745
  113UDC     C4 1236  13.547  12.235  12.089  0.9211 -1.0663  0.4785
  113UDC     C5 1237  13.591  12.095  12.129 -1.3598  0.3303  0.7358
  113UDC     C6 1238  13.566  11.974  12.030  0.3302  0.1899 -0.6237
  113UDC     C7 1239  13.552  12.003  11.884  0.4249 -0.6062  0.2882
  113UDC     C8 1240  13.687  12.009  11.804 -1.1438 -1.6237  0.0735
  113UDC     C9 1241  13.699  12.070  11.656 -0.0761 -0.0060 -0.3823
  113UDC    C10 1242  13.839  12.067  11.597 -0.1238 -1.0160 -0.2712
  113UDC    C11 1243  13.855  12.112  11.449  0.0687  0.0446 -0.5137
  114UDC     C1 1244   6.665  14.884  17.181  0.3810 -0.2589  0.3920
  114UDC     C2 1245   6.590  14.938  17.308 -0.7839 -0.1163  1.7948
  114UDC     C3 1246   6.452  14.993  17.277 -0.0744  0.1183 -0.5663
  114UDC     C4 1247   6.449  15.129  17.199  0.1889  0.2989 -0.5506
  114UDC     C5 1248   6.502  15.247  17.285 -1.2266  0.6981  0.0349
  114UDC     C6 1249   6.393  15.335  17.349 -0.7086 -0.0028  0.0293
  114UDC     C7 1250   6.251  15.279  17.368 -0.0983  1.0298  0.5586
  114UDC     C8 1251   6.231  15.237  17.511 -0.0119 -0.2907 -0.9763
  114UDC     C9 1252   6.249  15.341  17.619 -0.4443  0.6955 -0.1076
  114UDC    C10 1253   6.214  15.294  17.765 -0.3694 -0.0141  0.9271
  114UDC    C11 1254   6.265  15.167  17.832  0.7863 -0.1408 -1.0205
  115UDC     C1 1255   3.145   9.937  14.308 -0.3474 -0.0102 -0.0652
  115UDC     C2 1256   3.300   9.936  14.340  1.0368 -1.1110  0.1290
  115UDC     C3 1257   3.354  10.056  14.419  0.9268  0.3397 -0.0879
  115UDC     C4 1258   3.501  10.040  14.473  0.6772 -0.3852 -0.4994
  115UDC     C5 1259   3.582   9.955  14.373 -0.7700  0.0917 -0.7602
  115UDC     C6 1260   3.733   9.965  14.386  0.7928  0.0783 -1.2085
  115UDC     C7 1261   3.816   9.838  14.365 -1.1276 -0.5704 -0.1419
  115UDC     C8 1262   3.865   9.835  14.213  0.8918  1.1308  0.4650
  115UDC     C9 1263   3.813   9.692  14.163 -0.6458  0.6069 -0.6201
  115UDC    C10 1264   3.914   9.577  14.201  0.4709  1.1452 -0.2850
  115UDC    C11 1265   3.885   9.444  14.142  0.8284  0.0217  0.3141
  116UDC     C1 1266  14.803  13.956   8.603 -0.3235  0.1890  0.2383
  116UDC     C2 1267  14.952  13.993   8.609  0.6649 -0.7629 -0.2239
  116UDC     C3 1268  15.006  14.032   8.470 -0.0821 -0.4204 -0.1814
  116UDC     C4 1269  14.968  14.176   8.429 -0.6291 -0.1523  0.6094
  116UDC     C5 1270  15.055  14.215   8.304 -0.5028  0.4254 -0.4420
  116UDC     C6 1271  15.192  14.253   8.358  0.4930  0.1857 -0.8799
  116UDC     C7 1272  15.288  14.292   8.243  0.2972 -0.0858  0.4063
  116UDC     C8 1273  15.283  14.201   8.115  1.3828  0.1324  0.1027
  116UDC     C9 1274  15.386  14.244   8.012 -0.3266 -0.0673 -0.2464
  116UDC    C10 1275  15.404  14.399   7.983 -0.0052 -0.0014 -1.2135
  116UDC    C11 1276  15.513  14.402   7.878 -0.6184  0.1652  0.4329
  117UDC     C1 1277   3.395   6.722  13.644  0.6263 -0.0490  0.9866
  117UDC     C2 1278   3.318   6.834  13.715 -0.6481 -0.0347  0.4899
  117UDC     C3 1279   3.387   6.972  13.692  0.2385 -0.0983  0.1922
  117UDC     C4 1280   3.308   7.081  13.766 -0.5878  1.0339 -0.6716
  117UDC     C5 1281   3.313   7.057  13.920 -0.2169  0.6493  0.2003
  117UDC     C6 1282   3.265   7.150  14.030 -0.2292 -0.3575  0.0241
  117UDC     C7 1283   3.251   7.103  14.175 -0.1353  0.6645 -0.2043
  117UDC     C8 1284   3.246   7.195  14.299 -0.2171 -0.0038  1.0818
  117UDC     C9 1285   3.139   7.301  14.268  0.5506 -0.0466  0.8800
  117UDC    C10 1286   3.107   7.391  14.396 -0.8106 -0.2471 -0.1058
  117UDC    C11 1287   3.224   7.485  14.421 -0.0465 -0.6754 -0.7206
  118UDC     C1 1288   7.912  18.094   9.108 -0.6220 -0.2790  0.0575
  118UDC     C2 1289   7.883  17.946   9.094  0.3910  0.4442 -0.0118
  118UDC     C3 1290   7.960  17.836   9.178 -0.0334  0.8164  0.0611
  118UDC     C4 1291   7.905  17.700   9.148 -0.4902 -0.2061  0.6911
  118UDC     C5 1292   7.805  17.645   9.257  0.2553  0.1442  0.1101
  118UDC     C6 1293   7.661  17.698   9.248  0.7736 -0.6566  0.3208
  118UDC     C7 1294   7.579  17.699   9.378 -0.9823  0.6775 -0.5487
  118UDC     C8 1295   7.437  17.722   9.356  0.7295  1.2850 -0.0052
  118UDC     C9 1296   7.336  17.686   9.465 -1.6708 -0.5026 -0.0187
  118UDC    C10 1297   7.190  17.677   9.418 -0.2408 -0.3390 -0.6395
  118UDC    C11 1298   7.140  17.805   9.343  0.2615 -0.2983  0.2895
  119UDC     C1 1299   8.086  12.487   7.155  0.8290  0.2019 -0.7504
  119UDC     C2 1300   7.981  12.460   7.052 -0.7750  0.3411  1.6120
  119UDC     C3 1301   7.919  12.589   6.995 -0.8847  0.1347  1.3701
  119UDC     C4 1302   7.882  12.698   7.104 -0.1795 -0.2006  0.8285
  119UDC     C5 1303   7.816  12.834   7.053 -0.3719  0.5119 -0.6553
  119UDC     C6 1304   7.826  12.956   7.149  0.5183  0.8896  1.5491
  119UDC     C7 1305   7.913  13.062   7.080 -0.0896 -0.5802 -0.1661
  119UDC     C8 1306   7.995  13.161   7.163 -1.4265  0.7584  0.0187
  119UDC     C9 1307   8.125  13.209   7.095 -0.2643 -0.3920 -1.1243
  119UDC    C10 1308   8.233  13.273   7.191 -0.2694  1.2200 -0.2120
  119UDC    C11 1309   8.177  13.377   7.288  0.5143  0.2219 -0.5866
  120UDC     C1 1310  17.442   0.171   1.063 -0.1379  0.9448  0.1440
  120UDC     C2 1311  17.330   0.227   1.148 -0.2984  0.9446 -0.6087
  120UDC     C3 1312  17.277   0.113   1.238  0.0192  0.4407 -0.8412
  120UDC     C4 1313  17.133   0.140   1.277  0.3088 -0.7192  0.4817
  120UDC     C5 1314  17.057   0.031   1.347 -1.2094  0.3775  0.0194
  120UDC     C6 1315  16.920   0.072   1.404 -0.0481 -1.3942  0.2387
  120UDC     C7 1316  16.893  -0.036   1.512  1.0753  0.6424  0.4263
  120UDC     C8 1317  16.754  -0.001   1.577 -0.1277 -0.7097  0.0284
  120UDC     C9 1318  16.654  -0.089   1.508 -0.1695  0.4733 -0.0093
  120UDC    C10 1319  16.684  -0.234   1.538  0.3020 -0.4793 -0.2058
  120UDC    C11 1320  16.572  -0.331   1.491 -0.3711  0.0939  0.3065
  121UDC     C1 1321  16.093  18.411  13.262 -0.3882  0.4124  0.2685
  121UDC     C2 1322  16.156  18.549  13.233 -0.5802 -0.6466  0.7973
  121UDC     C3 1323  16.309  18.556  13.229  1.1274 -2.0427  0.2013
  121UDC     C4 1324  16.387  18.457  13.150 -1.1721 -0.0953 -0.9183
  121UDC     C5 1325  16.520  18.418  13.218 -1.1924  0.6079  0.5040
  121UDC     C6 1326  16.604  18.328  13.120  1.2014  1.5283 -0.1652
  121UDC     C7 1327  16.574  18.175  13.159 -0.8464 -0.6235  1.1870
  121UDC     C8 1328  16.673  18.067  13.111 -0.1109  0.1680  0.4114
  121UDC     C9 1329  16.636  17.949  13.205  0.0849  0.5193  0.0607
  121UDC    C10 1330  16.672  17.820  13.129 -0.6189  1.1186 -0.4893
  121UDC    C11 1331  16.815  17.823  13.084 -0.8975  0.0891  0.2481
  122UDC     C1 1332  11.742  17.042  11.099  0.5843 -0.2573  1.0128
  122UDC     C2 1333  11.849  17.160  11.086 -0.8881 -0.0931  0.5559
  122UDC     C3 1334  11.983  17.096  11.122  0.1299 -0.0858 -0.2781
  122UDC     C4 1335  12.095  17.109  11.010  0.6407  0.2148 -0.4461
  122UDC     C5 1336  12.068  17.141  10.863  0.1966  0.9504  0.2049
  122UDC     C6 1337  12.177  17.147  10.764  1.0186 -0.4818 -0.2537
  122UDC     C7 1338  12.111  17.178  10.626  0.0799 -0.2405  0.3942
  122UDC     C8 1339  12.141  17.099  10.495 -0.0459  1.2001  0.7644
  122UDC     C9 1340  12.040  17.116  10.379  0.3021 -0.4256  0.3832
  122UDC    C10 1341  12.087  17.046  10.256 -0.1541 -0.5620  0.6716
  122UDC    C11 1342  12.080  16.898  10.243  0.3867 -0.2091  0.9096
  123UDC     C1 1343   4.144   8.711  13.480 -1.2349  1.6671  0.2435
  123UDC     C2 1344   4.172   8.736  13.329 -0.0002  0.0103  0.0200
  123UDC     C3 1345   4.089   8.854  13.278  1.0412 -0.2840 -0.7693
  123UDC     C4 1346   4.145   8.927  13.159  0.3273 -0.0737 -0.1123
  123UDC     C5 1347   4.080   9.060  13.108 -0.5500 -0.5104 -0.5445
  123UDC     C6 1348   4.164   9.146  13.007  0.3101  0.1240  0.5519
  123UDC     C7 1349   4.136   9.108  12.864  0.8802 -0.3178  0.5817
  123UDC     C8 1350   4.233   9.178  12.766  0.2025  0.2722 -1.1938
  123UDC     C9 1351   4.364   9.116  12.792  0.4235  1.1227 -0.1429
  123UDC    C10 1352   4.454   9.170  12.680 -0.1327 -0.0182 -0.2007
  123UDC    C11 1353   4.593   9.111  12.717  0.2926 -0.2461  0.6913
  124UDC     C1 1354  18.222   1.038   9.308 -0.2919 -0.4077  0.2748
  124UDC     C2 1355  18.312   0.944   9.388  0.1515 -0.4439 -0.1648
  124UDC     C3 1356  18.264   0.907   9.530  0.4892 -0.1507 -0.1503
  124UDC     C4 1357  18.121   0.874   9.543 -0.4427 -0.3016 -0.3082
  124UDC     C5 1358  18.095   0.885   9.691 -0.9113 -0.1800  0.2462
  124UDC     C6 1359  17.971   0.802   9.717  0.4150  0.6567 -0.6671
  124UDC     C7 1360  17.942   0.794   9.870 -0.0350 -0.4622 -0.6011
  124UDC     C8 1361  17.891   0.917   9.942  1.1139 -0.4516  0.3527
  124UDC     C9 1362  17.916   0.923  10.089  0.3914 -0.3149 -0.2215
  124UDC    C10 1363  17.875   1.064  10.143  0.8677 -0.0466 -0.9940
  124UDC    C11 1364  17.952   1.179  10.076  0.7414 -1.2643  0.4676
  125UDC     C1 1365  13.429  10.046  16.027 -0.4965 -0.0452 -0.0241
  125UDC     C2 1366  13.313  10.061  15.930  0.5162  1.3313  0.2883
  125UDC     C3 1367  13.173  10.063  15.994  0.2165 -0.7529  0.1395
  125UDC     C4 1368  13.122  10.210  16.013  0.3315  0.1271  0.2707
  125UDC     C5 1369  12.968  10.219  16.018 -0.0237 -0.3547 -0.0462
  125UDC     C6 1370  12.912  10.234  16.159 -0.4731  0.2578 -0.0087
  125UDC     C7 1371  12.781  10.159  16.191  0.6491 -0.6880  1.4259
  125UDC     C8 1372  12.805  10.005  16.191  0.5493  0.0657 -1.0641
  125UDC     C9 1373  12.893   9.947  16.310  1.0133 -0.7843 -0.0139
  125UDC    C10 1374  12.872   9.800  16.317 -0.1781  0.0212 -0.0713
  125UDC    C11 1375  12.781   9.739  16.415 -0.0709  0.4431 -0.0694
  126UDC     C1 1376  15.662  14.296  12.456 -0.3154  0.2909  0.6275
  126UDC     C2 1377  15.624  14.237  12.586  0.4370 -0.4906  0.0380
  126UDC     C3 1378  15.518  14.331  12.634 -0.4911 -0.5590  0.5979
  126UDC     C4 1379  15.573  14.470  12.631 -0.7821  0.7912 -0.1303
  126UDC     C5 1380  15.463  14.575  12.677 -0.1072 -0.4485 -0.7663
  126UDC     C6 1381  15.505  14.721  12.692 -0.1780 -0.0743 -0.1251
  126UDC     C7 1382  15.388  14.810  12.749  0.2605 -1.0816  1.0954
  126UDC     C8 1383  15.435  14.912  12.842 -0.8226  0.4069 -0.2879
  126UDC     C9 1384  15.320  14.940  12.931 -0.1945  0.0140  0.0305
  126UDC    C10 1385  15.210  15.010  12.846 -0.3770 -0.0914 -1.1259
  126UDC    C11 1386  15.194  15.159  12.878  1.1731  0.2918 -0.7821
  127UDC     C1 1387  15.028   0.367   3.997  0.1606 -0.3107  0.5579
  127UDC     C2 1388  15.047   0.522   3.977 -1.1392  0.2940  0.9275
  127UDC     C3 1389  15.096   0.584   4.108  0.0309  0.4165  1.0139
  127UDC     C4 1390  15.022   0.715   4.128  0.3987  0.2645  0.1133
  127UDC     C5 1391  15.029   0.783   4.263  0.1413 -0.4038  0.6022
  127UDC     C6 1392  14.949   0.908   4.220  0.0366  0.3051 -1.1006
  127UDC     C7 1393  14.815   0.896   4.152 -1.3405 -0.1177  0.4802
  127UDC     C8 1394  14.731   1.015   4.115  0.2648  0.4252  0.4049
  127UDC     C9 1395  14.647   1.068   4.236  0.8722  0.0160 -0.0601
  127UDC    C10 1396  14.541   0.957   4.258  0.0528 -0.0390  0.4661
  127UDC    C11 1397  14.390   1.003   4.259 -0.3046 -0.0064  0.7017
  128UDC     C1 1398  13.608   9.849   0.195  0.2398 -0.6879 -0.3564
  128UDC     C2 1399  13.655   9.878   0.341  0.8536 -0.3827 -0.4015
  128UDC     C3 1400  13.705  10.023   0.377 -0.1236 -0.1606 -0.2664
  128UDC     C4 1401  13.850  10.063   0.319  0.7863 -0.1209  0.4159
  128UDC     C5 1402  13.875  10.211   0.294  0.3612 -0.3552 -0.9881
  128UDC     C6 1403  13.775  10.277   0.187 -0.4148 -0.0217 -0.1646
  128UDC     C7 1404  13.748  10.430   0.189  0.6638  0.7694 -0.4456
  128UDC     C8 1405  13.890  10.490   0.151  0.5971  0.0470  0.4477
  128UDC     C9 1406  13.928  10.639   0.181  1.1109  0.4380 -0.0496
  128UDC    C10 1407  14.075  10.666   0.176 -0.7720 -0.4045  1.0789
  128UDC    C11 1408  14.138  10.811   0.180  0.0336 -0.6242  0.1088
  129UDC     C1 1409   6.605  18.726  19.189  0.7114  0.5353 -0.3217
  129UDC     C2 1410   6.712  18.713  19.084  0.1714 -1.6093  0.9055
  129UDC     C3 1411   6.687  18.786  18.946 -0.5703 -0.1717  0.1916
  129UDC     C4 1412   6.558  18.745  18.880 -0.8471 -0.1797  0.4932
  129UDC     C5 1413   6.547  18.591  18.875  0.5575  1.6544  0.1244
  129UDC     C6 1414   6.613  18.507  18.767 -0.1145 -0.3565  0.7066
  129UDC     C7 1415   6.615  18.355  18.796  0.1099 -0.4829 -0.1798
  129UDC     C8 1416   6.691  18.273  18.691  0.3919  0.3138  0.0114
  129UDC     C9 1417   6.684  18.117  18.706  0.2481  0.7581  1.8502
  129UDC    C10 1418   6.736  18.039  18.580  0.1123 -1.0968 -0.8935
  129UDC    C11 1419   6.739  17.889  18.614 -0.5953 -0.7672  0.5368
  130UDC     C1 1420   6.460  13.176  13.417 -0.2888 -1.2151  1.0168
  130UDC     C2 1421   6.433  13.292  13.516  1.2323  0.4126  0.3612
  130UDC     C3 1422   6.555  13.395  13.533 -1.0544  0.6765 -0.6510
  130UDC     C4 1423   6.533  13.503  13.646 -0.3658 -1.1904  0.7856
  130UDC     C5 1424   6.438  13.630  13.624  0.3922  0.0516  0.4470
  130UDC     C6 1425   6.409  13.672  13.479 -0.9579  0.2594 -0.6344
  130UDC     C7 1426   6.296  13.770  13.440 -0.6248  0.4723 -0.9314
  130UDC     C8 1427   6.319  13.857  13.311  0.9129 -0.1518 -0.3742
  130UDC     C9 1428   6.359  14.003  13.351  0.6526 -0.2906  0.9854
  130UDC    C10 1429   6.308  14.045  13.492  0.1249  0.7204  0.0254
  130UDC    C11 1430   6.429  14.068  13.577  0.3146 -0.4570 -0.8945
  131UDC     C1 1431  13.908   9.271  19.023  0.6400 -0.3105  0.3003
  131UDC     C2 1432  13.916   9.217  19.166  1.0352  0.5746  0.2233
  131UDC     C3 1433  14.003   9.097  19.174 -1.4749  0.3941 -0.2508
  131UDC     C4 1434  13.955   8.969  19.258  0.4827  0.1998  0.3157
  131UDC     C5 1435  13.839   8.888  19.205 -0.1701  0.7825 -0.1002
  131UDC     C6 1436  13.812   8.752  19.274 -1.0838  0.2897 -0.6049
  131UDC     C7 1437  13.936   8.662  19.258 -0.0214  0.8752 -0.4345
  131UDC     C8 1438  13.931   8.515  19.323  0.7431 -0.7462  0.0728
  131UDC     C9 1439  13.831   8.436  19.240  0.4505 -0.5245  0.1686
  131UDC    C10 1440  13.890   8.307  19.196  0.7766 -0.4747  0.1515
  131UDC    C11 1441  13.930   8.299  19.049 -0.4833 -0.0509 -0.1094
  132UDC     C1 1442  11.714  19.632  13.927 -0.2851 -0.0152 -0.0040
  132UDC     C2 1443  11.769  19.520  14.021 -0.1377  0.5395 -0.9118
  132UDC     C3 1444  11.768  19.378  13.961 -0.0720 -0.4076 -0.9071
  132UDC     C4 1445  11.829  19.355  13.823 -0.1021  0.5333  0.3465
  132UDC     C5 1446  11.878  19.212  13.785  0.5392  0.0548  0.2338
  132UDC     C6 1447  11.858  19.106  13.887  0.3317  1.2691  0.6314
  132UDC     C7 1448  11.928  18.970  13.891  0.3229  0.0249  0.6079
  132UDC     C8 1449  11.898  18.866  13.778  0.4617 -0.0302  0.1551
  132UDC     C9 1450  11.904  18.724  13.820  1.1490 -0.2253 -1.3219
  132UDC    C10 1451  11.835  18.621  13.733 -0.0203  0.1746 -0.1242
  132UDC    C11 1452  11.786  18.499  13.805 -0.2872  0.4301  0.1252
  133UDC     C1 1453  16.614  12.178  10.429  0.1390  0.3924 -0.7823
  133UDC     C2 1454  16.640  12.320  10.481  0.3729 -0.4747 -0.7224
  133UDC     C3 1455  16.789  12.326  10.474 -1.3716  0.6574 -0.5504
  133UDC     C4 1456  16.839  12.196  10.553  0.0018  0.0361  0.0368
  133UDC     C5 1457  16.989  12.194  10.579  0.9933 -0.4058  0.1294
  133UDC     C6 1458  17.076  12.217  10.450 -0.8859 -0.1816  0.0198
  133UDC     C7 1459  17.222  12.169  10.465  0.8590  0.4755  0.7087
  133UDC     C8 1460  17.228  12.022  10.506 -0.2777  0.8265  0.1582
  133UDC     C9 1461  17.364  11.949  10.527 -0.6608  0.3113  0.2554
  133UDC    C10 1462  17.458  11.961  10.406  0.0202  0.0935 -0.8221
  133UDC    C11 1463  17.611  11.934  10.438  1.0808  0.6543  0.3867
  134UDC     C1 1464  17.933  14.771   2.632  0.8738  0.4983  0.3574
  134UDC     C2 1465  18.048  14.840   2.555 -0.5530 -0.4768 -1.5538
  134UDC     C3 1466  18.020  14.840   2.413  0.3728 -0.8571  0.4134
  134UDC     C4 1467  18.145  14.885   2.332 -0.5493  0.4950 -0.3190
  134UDC     C5 1468  18.275  14.802   2.333  0.5778 -0.3555 -0.8886
  134UDC     C6 1469  18.273  14.666   2.257  0.1260 -0.2761  0.1578
  134UDC     C7 1470  18.405  14.594   2.276  0.5865  0.8319  0.9476
  134UDC     C8 1471  18.518  14.684   2.225 -0.8212  0.3894 -0.1813
  134UDC     C9 1472  18.536  14.699   2.071  0.8409 -0.1271 -0.3175
  134UDC    C10 1473  18.537  14.560   1.997 -0.2637  0.1383 -0.2374
  134UDC    C11 1474  18.686  14.502   2.019 -0.5517 -0.9011 -0.2460
  135UDC     C1 1475   3.018  15.476  16.020 -0.1168 -0.4756  0.6788
  135UDC     C2 1476   3.006  15.614  16.085 -1.6170  0.5662 -0.6044
  135UDC     C3 1477   3.093  15.623  16.206 -0.4956  0.6465 -0.0073
  135UDC     C4 1478   3.124  15.769  16.239  0.2652  0.8303  0.2092
  135UDC     C5 1479   3.205  15.772  16.374 -0.0966 -0.0066 -0.5091
  135UDC     C6 1480   3.340  15.846  16.385 -0.2886 -0.2698  1.1843
  135UDC     C7 1481   3.335  16.002  16.363  0.7066  0.2373  0.1495
  135UDC     C8 1482   3.456  16.083  16.343  0.1200 -0.5170 -0.5869
  135UDC     C9 1483   3.437  16.233  16.326  0.0865  0.7155  0.6882
  135UDC    C10 1484   3.565  16.303  16.378  0.1427 -0.2975 -0.8548
  135UDC    C11 1485   3.577  16.448  16.318 -0.6281 -0.2109  0.6212
  136UDC     C1 1486   4.592  17.846  19.377 -0.5389  0.1903  0.0622
  136UDC     C2 1487   4.729  17.798  19.425 -0.3727 -1.1707  0.0027
  136UDC     C3 1488   4.740  17.816  19.574 -0.4357  1.0669 -0.5157
  136UDC     C4 1489   4.658  17.713  19.655  0.1634  1.0227 -0.0440
  136UDC     C5 1490   4.661  17.681  19.803 -0.0566 -0.2783  0.1413
  136UDC     C6 1491   4.542  17.595  19.850 -0.5183  0.5144  0.6975
  136UDC     C7 1492   4.508  17.546  19.991  0.1265 -0.1446 -1.8070
  136UDC     C8 1493   4.390  17.444  19.976  0.2164 -0.5456  0.4156
  136UDC     C9 1494   4.423  17.316  20.066 -0.5241 -0.3947  0.4650
  136UDC    C10 1495   4.306  17.211  20.059  0.1969 -0.5698  0.5445
  136UDC    C11 1496   4.174  17.291  20.086 -0.3923 -0.1120  0.4064
  137UDC     C1 1497  13.778  13.875   1.890 -0.0315  0.1171 -0.2014
  137UDC     C2 1498  13.792  13.976   1.777 -0.3336  0.3573  0.4106
  137UDC     C3 1499  13.660  14.058   1.768 -0.8819 -0.8058 -0.5322
  137UDC     C4 1500  13.661  14.152   1.651  0.3386  0.4316  0.0056
  137UDC     C5 1501  13.713  14.103   1.519  0.2626  0.0804  0.2832
  137UDC     C6 1502  13.731  14.223   1.419  0.1082 -0.1699  0.4432
  137UDC     C7 1503  13.832  14.315   1.494  1.1091 -0.5748 -0.0098
  137UDC     C8 1504  13.859  14.456   1.430 -0.1488  0.1697  0.4650
  137UDC     C9 1505  13.746  14.559   1.411 -0.6840  0.1873  0.1027
  137UDC    C10 1506  13.745  14.639   1.282  0.0874  0.5526 -1.4719
  137UDC    C11 1507  13.628  14.738   1.251 -0.5059  1.3258 -0.7779
  138UDC     C1 1508   0.779  19.641   1.049  0.5599  0.1652  0.8809
  138UDC     C2 1509   0.655  19.571   0.986  0.2342  0.1575  0.1986
  138UDC     C3 1510   0.671  19.510   0.844  0.9576  0.4540  0.4349
  138UDC     C4 1511   0.530  19.478   0.776 -0.4936 -0.2603 -0.2151
  138UDC     C5 1512   0.552  19.470   0.622  0.1035  0.1117 -0.3392
  138UDC     C6 1513   0.449  19.488   0.506 -0.0439 -0.3428 -0.4160
  138UDC     C7 1514   0.311  19.421   0.506  0.2698 -0.5850  1.3045
  138UDC     C8 1515   0.230  19.431   0.373  0.6846 -0.1300  1.0186
  138UDC     C9 1516   0.275  19.374   0.234 -0.7921  0.9733 -0.2542
  138UDC    C10 1517   0.373  19.463   0.161 -1.0544  0.2962  0.5898
  138UDC    C11 1518   0.503  19.397   0.110 -0.5491 -0.0286 -0.5984
  139UDC     C1 1519   8.555  15.693   6.906  0.6567  0.2844 -0.2375
  139UDC     C2 1520   8.590  15.840   6.874 -1.6882 -0.8736 -0.0263
  139UDC     C3 1521   8.681  15.917   6.971  0.6401  0.3078 -0.4259
  139UDC     C4 1522   8.700  16.058   6.914  0.1158  0.0924 -0.3613
  139UDC     C5 1523   8.719  16.155   7.025 -0.5966  0.2765  0.0554
  139UDC     C6 1524   8.708  16.300   6.997  0.4238 -0.0103 -0.0163
  139UDC     C7 1525   8.731  16.381   7.127  1.2200 -0.2790  0.5740
  139UDC     C8 1526   8.772  16.528   7.117 -1.5588  0.0596 -1.7989
  139UDC     C9 1527   8.670  16.620   7.047 -0.3018  0.1651 -0.3234
  139UDC    C10 1528   8.704  16.760   7.082 -0.1280 -0.0302  0.1938
  139UDC    C11 1529   8.588  16.848   7.034 -0.1492  0.2774  0.0835
  140UDC     C1 1530  13.718  11.751   4.848 -0.1151 -0.3362  0.5586
  140UDC     C2 1531  13.611  11.809   4.751 -1.1493 -0.1952 -0.5194
  140UDC     C3 1532  13.628  11.964   4.747 -0.8606 -0.6195  0.6222
  140UDC     C4 1533  13.765  11.994   4.686 -0.5826 -0.3990 -0.1356
  140UDC     C5 1534  13.742  12.093   4.575  0.0304  0.5351 -0.4967
  140UDC     C6 1535  13.726  12.241   4.613 -0.2944 -0.2325 -0.1110
  140UDC     C7 1536  13.650  12.341   4.524  0.3985 -0.6907 -0.2513
  140UDC     C8 1537  13.497  12.324   4.523  0.0921 -0.4317  0.0675
  140UDC     C9 1538  13.446  12.314   4.667 -0.4860  0.2282 -0.4155
  140UDC    C10 1539  13.304  12.256   4.689  0.4653 -0.7650 -0.2905
  140UDC    C11 1540  13.272  12.125   4.625 -0.3889  0.4953  0.8535
  141UDC     C1 1541  13.242   7.762   5.878  0.3261 -0.3549 -0.6561
  141UDC     C2 1542  13.192   7.646   5.791 -0.1283  0.1430  0.2824
  141UDC     C3 1543  13.272   7.514   5.796 -1.1071 -0.6556 -0.4632
  141UDC     C4 1544  13.425   7.526   5.802  0.2991 -0.3747 -0.4598
  141UDC     C5 1545  13.476   7.386   5.835  1.8799  0.3728 -0.1668
  141UDC     C6 1546  13.617   7.369   5.882  0.8725  0.0285  0.1858
  141UDC     C7 1547  13.682   7.228   5.907  0.9888 -0.2571 -0.8511
  141UDC     C8 1548  13.614   7.134   5.999 -0.1325  0.1337 -1.0750
  141UDC     C9 1549  13.702   7.006   5.985  0.7068 -0.9045 -0.0687
  141UDC    C10 1550  13.664   6.920   5.867  0.7732 -0.4490 -0.9831
  141UDC    C11 1551  13.708   6.769   5.872 -0.1732 -0.5641  1.3296
  142UDC     C1 1552  18.196  15.405   4.980 -0.0043 -0.9074 -0.3705
  142UDC     C2 1553  18.035  15.382   4.984  0.1910  1.0582 -0.2788
  142UDC     C3 1554  17.973  15.490   4.897  0.8421  0.7702  0.6133
  142UDC     C4 1555  17.989  15.639   4.916  0.7255 -0.1232 -0.7487
  142UDC     C5 1556  17.870  15.680   5.005 -0.0777 -0.2598  0.6544
  142UDC     C6 1557  17.892  15.802   5.089 -1.1183  0.3169  1.4743
  142UDC     C7 1558  17.758  15.815   5.163  0.2395 -0.4492 -0.2368
  142UDC     C8 1559  17.741  15.926   5.272  0.4696  0.3575 -0.5697
  142UDC     C9 1560  17.593  15.927   5.322  1.1144  0.3615  0.2094
  142UDC    C10 1561  17.474  15.992   5.254 -0.1468  0.5588 -0.2826
  142UDC    C11 1562  17.349  16.002   5.337 -0.8421 -0.0469  0.0329
  143UDC     C1 1563   2.882   6.944   3.521 -0.1300  0.1042 -0.0258
  143UDC     C2 1564   2.741   7.006   3.512  0.3958 -0.4858 -0.8820
  143UDC     C3 1565   2.658   6.912   3.429 -0.5517 -0.7570  0.5515
  143UDC     C4 1566   2.537   6.969   3.355 -0.1345  0.2083  1.0856
  143UDC     C5 1567   2.577   7.094   3.277 -0.4878  0.5076  0.1119
  143UDC     C6 1568   2.458   7.147   3.202 -0.3316 -1.0868 -0.7466
  143UDC     C7 1569   2.416   7.071   3.079  0.9996 -0.5245  0.2082
  143UDC     C8 1570   2.520   7.078   2.964  0.2886  0.3000 -0.0933
  143UDC     C9 1571   2.504   6.980   2.851 -0.1854  0.0346  0.0065
  143UDC    C10 1572   2.519   7.062   2.721 -0.5449  0.0030  0.7008
  143UDC    C11 1573   2.523   6.970   2.599  0.3080  0.1745 -0.3705
  144UDC     C1 1574  10.644   9.607   6.779 -0.0917 -0.0267  0.0088
  144UDC     C2 1575  10.672   9.662   6.920 -0.0699 -0.0224  0.2573
  144UDC     C3 1576  10.635   9.811   6.926  0.9625 -0.4294  0.0572
  144UDC     C4 1577  10.684   9.916   7.037  0.0761  0.0227 -0.7850
  144UDC     C5 1578  10.595  10.039   7.062  0.7640 -0.3303 -0.1192
  144UDC     C6 1579  10.433  10.022   7.059 -0.0173  0.9347 -0.1881
  144UDC     C7 1580  10.330  10.133   7.081  1.0242  0.5322 -0.0546
  144UDC     C8 1581  10.185  10.098   7.076  0.5947  0.2687 -0.2823
  144UDC     C9 1582  10.072  10.188   7.124 -0.6614  0.1605 -0.1873
  144UDC    C10 1583   9.935  10.139   7.074  0.0205 -0.3043 -0.3223
  144UDC    C11 1584   9.811  10.225   7.114 -0.7971 -0.5872 -0.3629
  145UDC     C1 1585  19.075   9.715  17.813 -0.3647  0.3299 -0.1122
  145UDC     C2 1586  19.170   9.612  17.882 -0.7796  0.6856  0.2088
  145UDC     C3 1587  19.325   9.616  17.897  0.8002  0.8576 -1.1296
  145UDC     C4 1588  19.367   9.734  17.997  0.1684  0.6880 -0.4064
  145UDC     C5 1589  19.372   9.867  17.930 -0.1543 -1.3728 -1.4221
  145UDC     C6 1590  19.395   9.990  18.016  0.3056 -0.5189 -0.0990
  145UDC     C7 1591  19.311  10.125  18.001  0.0812 -0.1931  1.4228
  145UDC     C8 1592  19.162  10.111  18.016 -0.2108  0.2036  1.2565
  145UDC     C9 1593  19.078  10.239  17.982 -0.8906  0.5410  0.5453
  145UDC    C10 1594  18.967  10.212  17.877 -0.3198 -0.9870 -1.2184
  145UDC    C11 1595  18.874  10.336  17.877 -1.8649  0.0596  0.6762
  146UDC     C1 1596   0.384   3.955   9.890 -0.0653 -0.3082  0.1861
  146UDC     C2 1597   0.289   3.874   9.802  0.1903  0.1538 -0.3006
  146UDC     C3 1598   0.183   3.815   9.897 -1.7870 -0.0715  0.0876
  146UDC     C4 1599   0.231   3.712   9.996  1.3838 -0.2416  0.6397
  146UDC     C5 1600   0.134   3.636  10.076 -0.4414  1.0384 -1.0446
  146UDC     C6 1601   0.206   3.541  10.185  1.1302  0.8685 -0.0408
  146UDC     C7 1602   0.109   3.528  10.306  1.1885 -0.0758  0.0430
  146UDC     C8 1603   0.117   3.656  10.400 -0.1414 -0.7280 -0.4869
  146UDC     C9 1604   0.049   3.635  10.534  0.3689 -0.5845 -0.4884
  146UDC    C10 1605   0.013   3.484  10.552  0.1894  0.1950 -0.6339
  146UDC    C11 1606  -0.068   3.471  10.683 -0.3363 -0.1669  0.3573
  147UDC     C1 1607   0.729   6.007   5.013  0.0169 -0.7372 -0.8722
  147UDC     C2 1608   0.631   5.897   4.990  1.2989 -0.3312 -0.5638
  147UDC     C3 1609   0.498   5.950   4.924  0.8352  0.6704  0.1434
  147UDC     C4 1610   0.395   5.941   5.041 -0.1282 -0.4290 -0.2081
  147UDC     C5 1611   0.239   5.929   5.013 -0.5870  0.4197  0.6801
  147UDC     C6 1612   0.176   6.067   4.980 -0.2092 -1.3007  0.1273
  147UDC     C7 1613   0.027   6.064   4.946 -0.1967 -0.7394 -0.8404
  147UDC     C8 1614  -0.034   6.209   4.940 -0.4143  0.0850 -0.4760
  147UDC     C9 1615   0.083   6.301   4.912  0.2296 -0.0573  0.0854
  147UDC    C10 1616   0.043   6.449   4.912 -0.2329 -0.0227  0.0219
  147UDC    C11 1617  -0.096   6.477   4.859 -0.8436 -0.7684 -0.2731
  148UDC     C1 1618  17.233   1.305   9.177  0.6957  0.9999 -0.2436
  148UDC     C2 1619  17.127   1.205   9.239 -0.0303  0.5394 -0.2155
  148UDC     C3 1620  17.053   1.137   9.128  0.7991 -0.1280  1.1051
  148UDC     C4 1621  16.919   1.078   9.192 -0.5865 -0.6387 -0.2752
  148UDC     C5 1622  16.810   1.076   9.085  0.9024 -0.4530  0.4397
  148UDC     C6 1623  16.672   1.021   9.144 -0.2482  0.5300  0.3396
  148UDC     C7 1624  16.579   0.959   9.036 -0.4362 -0.3251 -0.8257
  148UDC     C8 1625  16.534   1.046   8.922 -0.7762  0.3015  0.2049
  148UDC     C9 1626  16.570   1.013   8.774 -0.0355  0.7457 -1.5443
  148UDC    C10 1627  16.493   1.113   8.683 -0.5769 -0.4163 -0.5744
  148UDC    C11 1628  16.530   1.261   8.707 -0.8657  0.4869 -0.9693
  149UDC     C1 1629   5.929   3.399   5.853 -0.1233  0.0385 -0.1779
  149UDC     C2 1630   5.996   3.503   5.944  0.3172 -0.4950  0.2240
  149UDC     C3 1631   6.047   3.626   5.867 -0.5265 -0.3136  0.8701
  149UDC     C4 1632   6.016   3.757   5.934 -0.4811  0.0370  0.9227
  149UDC     C5 1633   6.127   3.853   5.886  0.1868 -0.1125  0.1420
  149UDC     C6 1634   6.131   3.986   5.966  0.6251 -0.1422  0.2687
  149UDC     C7 1635   5.993   4.050   5.963 -0.2793 -1.8546 -0.3860
  149UDC     C8 1636   5.998   4.198   6.017 -0.4655  0.0013 -0.2028
  149UDC     C9 1637   5.879   4.278   5.963 -1.1103 -0.7741 -0.9205
  149UDC    C10 1638   5.919   4.433   5.981  0.0396  0.5288 -0.5002
  149UDC    C11 1639   5.851   4.526   5.884  0.4910  0.5241  0.8183
  150UDC     C1 1640   1.381  13.933   3.136  0.2535 -0.2882  0.1561
  150UDC     C2 1641   1.513  13.997   3.171 -0.1681  0.3020 -0.2375
  150UDC     C3 1642   1.569  13.953   3.301  1.1338 -0.0238 -0.3037
  150UDC     C4 1643   1.708  14.014   3.329  0.0506 -0.3942 -0.3611
  150UDC     C5 1644   1.771  13.960   3.455 -0.6109  0.0853  0.0058
  150UDC     C6 1645   1.920  14.013   3.450  0.0461 -0.3702 -0.8083
  150UDC     C7 1646   1.977  14.023   3.587 -0.0187 -0.2173  0.1088
  150UDC     C8 1647   2.041  14.162   3.612  0.4738 -0.1062 -1.2150
  150UDC     C9 1648   1.957  14.286   3.571  0.9007 -0.2742  0.3144
  150UDC    C10 1649   2.019  14.424   3.600 -1.0346  0.6684  0.5940
  150UDC    C11 1650   1.929  14.551   3.607  0.0062 -0.4249  0.3368
  151UDC     C1 1651   3.558   8.784   2.194  0.2383 -0.2647  0.2506
  151UDC     C2 1652   3.702   8.748   2.235 -0.1657 -0.2114  0.0604
  151UDC     C3 1653   3.783   8.867   2.282 -0.5479 -1.0409  0.5424
  151UDC     C4 1654   3.938   8.852   2.287 -0.6809 -0.6648 -0.7415
  151UDC     C5 1655   4.005   8.984   2.249 -0.9917 -0.5528 -0.9167
  151UDC     C6 1656   3.965   9.106   2.338  0.2550  0.4541  0.8807
  151UDC     C7 1657   4.019   9.246   2.309 -0.0334  0.3197 -0.2117
  151UDC     C8 1658   3.968   9.357   2.404 -0.0196  0.9916  0.8025
  151UDC     C9 1659   3.945   9.500   2.355  0.4905 -0.0356 -0.8198
  151UDC    C10 1660   3.840   9.573   2.435 -0.6342 -0.0359 -1.6764
  151UDC    C11 1661   3.807   9.694   2.346 -0.0937 -0.1296 -0.3298
  152UDC     C1 1662  18.543   7.031   8.880 -0.0261 -0.3984  0.3554
  152UDC     C2 1663  18.496   7.016   8.734  0.3250  0.5200 -0.0929
  152UDC     C3 1664  18.431   6.886   8.686 -0.1570 -0.2716 -0.4417
  152UDC     C4 1665  18.382   6.879   8.542 -0.0178 -0.0887 -0.1925
  152UDC     C5 1666  18.512   6.885   8.460  1.2479 -0.0400 -0.7595
  152UDC     C6 1667  18.515   6.949   8.321  0.3126 -0.4748  0.0132
  152UDC     C7 1668  18.663   6.985   8.304  0.3507 -0.7113 -0.4654
  152UDC     C8 1669  18.690   7.086   8.192 -0.0008 -0.4498  0.3563
  152UDC     C9 1670  18.661   7.021   8.057 -0.6989 -0.7049  0.3786
  152UDC    C10 1671  18.746   7.077   7.934 -0.2094 -0.7983  0.7653
  152UDC    C11 1672  18.709   7.219   7.901  0.6455 -0.1405  0.0327
  153UDC     C1 1673  16.276   6.198  19.244  0.7426  0.4369 -0.0150
  153UDC     C2 1674  16.229   6.340  19.215 -0.0394 -0.7589  0.5535
  153UDC     C3 1675  16.277   6.428  19.337 -0.5692 -0.6612 -0.2408
  153UDC     C4 1676  16.252   6.376  19.477  0.5109 -0.8256 -0.0792
  153UDC     C5 1677  16.323   6.447  19.590  0.2205  0.5484 -0.7747
  153UDC     C6 1678  16.238   6.558  19.644 -0.0583  0.8088  0.5655
  153UDC     C7 1679  16.308   6.662  19.735 -0.2190 -0.5169 -0.0359
  153UDC     C8 1680  16.387   6.595  19.846 -1.2130  0.5935 -0.2367
  153UDC     C9 1681  16.454   6.707  19.929 -0.4338  0.3512 -0.2530
  153UDC    C10 1682  16.577   6.683  20.016 -0.2005 -0.1805 -0.0243
  153UDC    C11 1683  16.593   6.553  20.104 -0.2613 -1.0004 -0.4829
  154UDC     C1 1684   7.139  10.647   6.393 -0.2201  0.6393  0.4262
  154UDC     C2 1685   7.199  10.522   6.329  0.9001 -0.7255 -1.2827
  154UDC     C3 1686   7.320  10.463   6.401  0.3658 -0.4508 -0.2922
  154UDC     C4 1687   7.370  10.325   6.364 -0.0960 -0.1748 -0.1046
  154UDC     C5 1688   7.369  10.285   6.217  0.0431 -0.0956 -0.2114
  154UDC     C6 1689   7.418  10.138   6.208 -0.7251  0.6963 -0.3234
  154UDC     C7 1690   7.406  10.094   6.063 -0.9185 -0.4767  0.1897
  154UDC     C8 1691   7.380   9.947   6.045  0.6942  0.0247 -0.5303
  154UDC     C9 1692   7.228   9.925   6.081  0.0261 -1.2804  0.1809
  154UDC    C10 1693   7.117   9.920   5.971  0.7021  0.3024 -0.7921
  154UDC    C11 1694   6.974   9.941   6.033  0.0057  0.2478  0.2157
  155UDC     C1 1695   4.588  19.112  19.832 -0.4795 -0.7593  0.1118
  155UDC     C2 1696   4.664  19.080  19.702 -0.1612 -0.4584 -0.5169
  155UDC     C3 1697   4.787  19.147  19.642 -0.1341  0.0761 -0.3727
  155UDC     C4 1698   4.776  19.252  19.527 -0.9201  1.2450 -0.8813
  155UDC     C5 1699   4.822  19.201  19.393 -0.0425  0.3198  0.4571
  155UDC     C6 1700   4.965  19.216  19.354 -0.7786  0.6777 -0.1579
  155UDC     C7 1701   4.995  19.358  19.296  0.7957  1.1175 -0.4853
  155UDC     C8 1702   5.127  19.380  19.233 -0.4824 -0.7591 -0.1789
  155UDC     C9 1703   5.129  19.508  19.159 -0.3529 -0.3240 -0.0951
  155UDC    C10 1704   5.216  19.521  19.033  1.4694  1.6035  0.8552
  155UDC    C11 1705   5.161  19.648  18.963 -0.8911 -0.2858 -1.5719
  156UDC     C1 1706  16.728   1.660   1.564 -0.2290 -0.1990 -0.2171
  156UDC     C2 1707  16.882   1.651   1.597  0.3719  0.4332 -0.9937
  156UDC     C3 1708  16.966   1.578   1.500 -0.0210 -0.2446  0.3905
  156UDC     C4 1709  17.097   1.506   1.547  0.0588  0.6865  0.1974
  156UDC     C5 1710  17.180   1.425   1.448  0.3079  0.6852  0.0300
  156UDC     C6 1711  17.156   1.493   1.314  0.2556  0.7050  0.5999
  156UDC     C7 1712  17.241   1.424   1.204  1.1461  0.1381  0.3378
  156UDC     C8 1713  17.168   1.393   1.071  0.0448  0.4196  0.0588
  156UDC     C9 1714  17.241   1.354   0.942 -0.4848 -0.0279 -0.1852
  156UDC    C10 1715  17.290   1.211   0.978  0.5352  0.0323 -0.3477
  156UDC    C11 1716  17.363   1.139   0.867  0.5664 -0.3695  0.0410
  157UDC     C1 1717  17.794   4.029   2.407  0.7469 -0.0307 -0.7508
  157UDC     C2 1718  17.834   4.019   2.258 -0.3137 -0.7754 -0.6331
  157UDC     C3 1719  17.757   3.905   2.190  0.0447  0.5800  0.2947
  157UDC     C4 1720  17.783   3.781   2.274 -1.6554 -0.1483  0.2932
  157UDC     C5 1721  17.763   3.634   2.216 -0.2370  0.7422  0.0540
  157UDC     C6 1722  17.816   3.524   2.309  0.7615  0.0663  0.3493
  157UDC     C7 1723  17.768   3.378   2.258  0.9525  1.1257 -0.7610
  157UDC     C8 1724  17.784   3.279   2.367 -0.1076 -0.9216 -0.8396
  157UDC     C9 1725  17.923   3.285   2.423 -0.2185 -0.8005  0.3650
  157UDC    C10 1726  17.970   3.181   2.520 -0.0237 -0.6972  0.1765
  157UDC    C11 1727  17.987   3.231   2.672 -0.3713  0.6070  0.9159
  158UDC     C1 1728  18.979   9.621  19.703 -0.7751 -0.1287 -0.6306
  158UDC     C2 1729  19.073   9.659  19.824  0.4621 -0.5552  0.3686
  158UDC     C3 1730  19.113   9.539  19.914 -0.3702 -0.1755  0.2492
  158UDC     C4 1731  19.242   9.577  19.990 -0.5735 -0.3593 -0.1065
  158UDC     C5 1732  19.212   9.561  20.146 -0.8267 -0.6575 -0.4940
  158UDC     C6 1733  19.334   9.603  20.233 -0.1273  0.1053 -0.1450
  158UDC     C7 1734  19.318   9.577  20.383  0.6367  0.5019 -0.1013
  158UDC     C8 1735  19.256   9.440  20.406  0.6223  0.6434  0.1840
  158UDC     C9 1736  19.248   9.375  20.548  0.2657  0.3239  0.0187
  158UDC    C10 1737  19.371   9.308  20.618 -0.3662 -1.0903 -0.1636
  158UDC    C11 1738  19.435   9.177  20.554  0.3710 -0.8147  1.1097
  159UDC     C1 1739   6.273  18.211  15.871 -0.8454 -0.7512 -0.8081
  159UDC     C2 1740   6.204  18.076  15.894 -0.6711  0.5847  0.6600
  159UDC     C3 1741   6.293  17.946  15.905 -0.1719 -0.2165 -0.4008
  159UDC     C4 1742   6.351  17.877  15.773  0.8967  0.4043 -0.3726
  159UDC     C5 1743   6.253  17.758  15.750 -0.4883  1.0717  0.3887
  159UDC     C6 1744   6.107  17.796  15.719  0.1717  0.2637  0.5084
  159UDC     C7 1745   6.102  17.847  15.570  1.2892  0.8678 -0.4763
  159UDC     C8 1746   6.010  17.964  15.562 -0.8569 -1.0338 -0.2473
  159UDC     C9 1747   5.902  17.964  15.661 -0.6660 -0.0923 -0.0780
  159UDC    C10 1748   5.795  17.859  15.635  0.3632 -0.1371 -0.9269
  159UDC    C11 1749   5.738  17.860  15.485 -0.6752 -0.8425  0.0568
  160UDC     C1 1750  13.743  13.549  17.224 -0.8729 -0.0768  0.3778
  160UDC     C2 1751  13.830  13.415  17.238  0.5720  0.0272 -0.7438
  160UDC     C3 1752  13.924  13.425  17.353 -1.1620  0.0386 -0.2623
  160UDC     C4 1753  14.024  13.305  17.361  0.0540  0.8978  0.1728
  160UDC     C5 1754  14.104  13.298  17.231 -0.0690  0.5372  0.0868
  160UDC     C6 1755  14.168  13.163  17.195 -0.5952 -0.0034 -0.1780
  160UDC     C7 1756  14.290  13.143  17.290  1.0546  0.3713 -0.2814
  160UDC     C8 1757  14.388  13.021  17.275 -0.3121 -0.0878  0.0623
  160UDC     C9 1758  14.524  13.083  17.321  0.2139  0.5105  0.3809
  160UDC    C10 1759  14.589  13.026  17.440 -0.3958 -0.4945  0.7619
  160UDC    C11 1760  14.710  13.101  17.478  0.2575  0.6179  0.0427
  161UDC     C1 1761   4.713   9.465  17.951 -0.7764 -0.9426 -0.0202
  161UDC     C2 1762   4.860   9.449  17.898  0.9310 -1.1225 -0.3137
  161UDC     C3 1763   4.955   9.526  17.987 -0.5572 -0.4874 -0.4552
  161UDC     C4 1764   5.093   9.532  17.916 -0.8891  0.8118  0.7129
  161UDC     C5 1765   5.078   9.570  17.763  0.5737  0.2303 -0.1902
  161UDC     C6 1766   5.196   9.534  17.671 -0.4452 -0.1683  0.5989
  161UDC     C7 1767   5.239   9.390  17.663  0.1441  0.4469  0.3369
  161UDC     C8 1768   5.337   9.350  17.549 -0.0745  0.2208  0.1480
  161UDC     C9 1769   5.363   9.196  17.572  0.2488 -0.6410  0.7315
  161UDC    C10 1770   5.473   9.143  17.480 -0.2374  0.7769  1.1122
  161UDC    C11 1771   5.603   9.214  17.503 -0.8638  0.2698 -0.8782
  162UDC     C1 1772   1.501   0.070   7.826  0.8043 -0.0052  0.3700
  162UDC     C2 1773   1.608  -0.006   7.895 -0.2581  0.2777 -0.1041
  162UDC     C3 1774   1.642  -0.135   7.823 -0.0003 -0.6980  0.0048
  162UDC     C4 1775   1.770  -0.197   7.872  0.1865 -0.3569  1.0586
  162UDC     C5 1776   1.792  -0.347   7.829 -0.2570  0.7264 -0.1273
  162UDC     C6 1777   1.723  -0.403   7.703 -1.0710  0.0085 -0.3478
  162UDC     C7 1778   1.750  -0.531   7.608 -0.6865  0.0621 -1.1276
  162UDC     C8 1779   1.900  -0.535   7.556  0.4110 -0.6145  1.2808
  162UDC     C9 1780   1.929  -0.653   7.465 -0.6146  0.0819  0.0149
  162UDC    C10 1781   1.827  -0.675   7.354 -0.1592 -0.6106  0.6553
  162UDC    C11 1782   1.823  -0.548   7.267  0.4833  0.3982 -0.7978
  163UDC     C1 1783  14.969   1.542   3.844 -0.2997  0.4574 -1.1015
  163UDC     C2 1784  15.018   1.508   3.986 -1.2750  0.2111 -1.1886
  163UDC     C3 1785  15.168   1.551   4.029  0.2446  0.2886  0.4705
  163UDC     C4 1786  15.172   1.611   4.163  0.6000  0.5247 -0.6670
  163UDC     C5 1787  15.085   1.742   4.168  0.0464 -0.1211 -0.2438
  163UDC     C6 1788  15.090   1.821   4.309  0.2316  0.9915  0.0333
  163UDC     C7 1789  15.214   1.801   4.401  0.1076  0.6492  0.8139
  163UDC     C8 1790  15.186   1.774   4.556  0.7270 -0.0596  1.2995
  163UDC     C9 1791  15.308   1.754   4.643 -1.5777 -1.0507  0.7523
  163UDC    C10 1792  15.416   1.654   4.588  0.8575  1.7432 -0.4113
  163UDC    C11 1793  15.519   1.620   4.692 -0.1171  0.3318  0.6772
  164UDC     C1 1794  14.490   9.296   8.645  0.0129  0.3360  0.6486
  164UDC     C2 1795  14.612   9.392   8.623  0.5811 -0.4607  0.2052
  164UDC     C3 1796  14.708   9.372   8.735 -0.3686 -0.5644 -0.6191
  164UDC     C4 1797  14.821   9.479   8.737 -1.3560 -0.0322  0.1109
  164UDC     C5 1798  14.781   9.622   8.759  0.5028 -0.0369 -0.2501
  164UDC     C6 1799  14.878   9.745   8.742 -0.4236  0.1994  0.1427
  164UDC     C7 1800  14.787   9.872   8.776 -0.5372 -0.1123  0.0410
  164UDC     C8 1801  14.684   9.895   8.670 -0.1402  0.2657  0.5835
  164UDC     C9 1802  14.585  10.015   8.697  1.1357 -0.0696 -0.7687
  164UDC    C10 1803  14.448   9.960   8.740 -1.6442  0.8844  0.3974
  164UDC    C11 1804  14.446   9.886   8.869 -0.1947 -0.1396 -0.0696
  165UDC     C1 1805   7.476  17.156  12.657  1.8525 -0.7097 -1.0776
  165UDC     C2 1806   7.542  17.152  12.794  0.1415 -0.1084 -0.3651
  165UDC     C3 1807   7.566  17.008  12.853 -0.6356 -0.1899 -0.8273
  165UDC     C4 1808   7.430  16.948  12.908 -0.5018  0.0682 -0.5769
  165UDC     C5 1809   7.441  16.809  12.970  0.0289  0.6563 -0.2558
  165UDC     C6 1810   7.348  16.774  13.094 -0.2785 -0.4223  1.0472
  165UDC     C7 1811   7.369  16.643  13.170 -0.2482 -0.0461  0.6302
  165UDC     C8 1812   7.302  16.535  13.085  0.4683 -0.6078 -0.8159
  165UDC     C9 1813   7.314  16.397  13.153  0.7744 -0.6671  0.5094
  165UDC    C10 1814   7.290  16.293  13.042 -0.7227 -0.3953 -0.9652
  165UDC    C11 1815   7.415  16.234  12.984 -0.6572  1.0810  0.3211
  166UDC     C1 1816  11.622  13.660  17.958  0.3646  0.5534 -0.1141
  166UDC     C2 1817  11.623  13.513  17.904  0.2227 -0.4904 -2.1496
  166UDC     C3 1818  11.707  13.489  17.777  0.7780 -0.6333 -0.2316
  166UDC     C4 1819  11.861  13.507  17.807  0.2389 -0.9438  0.1916
  166UDC     C5 1820  11.921  13.374  17.846 -0.7605  0.1961 -0.4669
  166UDC     C6 1821  12.074  13.359  17.837 -0.5542  0.9092 -0.3477
  166UDC     C7 1822  12.110  13.220  17.776 -0.6214 -0.6399  0.5275
  166UDC     C8 1823  12.050  13.176  17.632 -0.0114  0.6627  0.3506
  166UDC     C9 1824  12.055  13.028  17.586  1.0935 -0.5530  0.1294
  166UDC    C10 1825  12.012  13.007  17.443 -0.0657  0.5981  0.0463
  166UDC    C11 1826  12.106  13.051  17.336  0.5608 -0.0314  0.8512
  167UDC     C1 1827  10.925  10.223  15.615 -0.6480  1.1526  0.3967
  167UDC     C2 1828  10.794  10.282  15.560 -0.2123  0.2543  0.5889
  167UDC     C3 1829  10.769  10.259  15.407 -0.1434 -0.9654  0.6299
  167UDC     C4 1830  10.854  10.366  15.335 -0.5566  0.3172  0.6767
  167UDC     C5 1831  10.818  10.512  15.320 -0.0561  1.1483 -0.6094
  167UDC     C6 1832  10.884  10.582  15.197 -0.7142 -0.3022 -0.4891
  167UDC     C7 1833  11.034  10.610  15.215 -0.4179  0.0448  0.2717
  167UDC     C8 1834  11.060  10.706  15.339 -0.5029  0.0075  1.0310
  167UDC     C9 1835  11.097  10.643  15.476  0.0251 -0.7520  0.8879
  167UDC    C10 1836  11.162  10.726  15.593  0.2743  0.1507  0.4414
  167UDC    C11 1837  11.307  10.760  15.558  0.3347 -0.8270 -0.4668
  168UDC     C1 1838   6.788   7.266  16.338  1.3241 -0.3039 -0.5537
  168UDC     C2 1839   6.632   7.257  16.301  0.3622 -0.2087 -0.4254
  168UDC     C3 1840   6.611   7.304  16.155 -0.4715 -0.6131  0.6090
  168UDC     C4 1841   6.466   7.323  16.141  0.3562 -0.1145 -0.6942
  168UDC     C5 1842   6.441   7.374  15.997  0.3095  1.4960 -0.4768
  168UDC     C6 1843   6.424   7.262  15.895  1.0182 -0.3874 -0.9483
  168UDC     C7 1844   6.321   7.284  15.786  0.1376 -0.7787  0.5076
  168UDC     C8 1845   6.295   7.153  15.704  1.0279  0.3797  0.7609
  168UDC     C9 1846   6.263   7.025  15.778  0.2290  0.1398 -0.0619
  168UDC    C10 1847   6.116   7.000  15.822 -0.1150 -0.6006 -0.5827
  168UDC    C11 1848   6.093   6.856  15.877 -0.5390 -0.4811 -1.0731
  169UDC     C1 1849  11.564  10.774  12.233 -0.5762  0.4864  1.0829
  169UDC     C2 1850  11.503  10.849  12.110 -0.6456  0.3696 -0.5281
  169UDC     C3 1851  11.447  10.986  12.150  0.5921 -0.3900 -0.3181
  169UDC     C4 1852  11.482  11.074  12.032  0.1287 -0.6562 -0.4727
  169UDC     C5 1853  11.434  11.009  11.900 -0.7208 -1.5625 -0.1181
  169UDC     C6 1854  11.454  11.081  11.763 -0.4647 -1.4234  0.6272
  169UDC     C7 1855  11.571  11.029  11.677 -0.0485 -0.3910  0.6327
  169UDC     C8 1856  11.625  11.113  11.561 -0.9679  0.7367  0.5139
  169UDC     C9 1857  11.684  11.032  11.444  0.4539  0.3853  0.1870
  169UDC    C10 1858  11.573  11.051  11.339 -0.2285 -0.0697  0.6990
  169UDC    C11 1859  11.610  11.163  11.230  0.3449 -0.1601 -0.6411
  170UDC     C1 1860  18.088   3.826  15.462  0.1094 -0.1629 -0.1638
  170UDC     C2 1861  18.088   3.947  15.368 -1.2161  0.5141  0.2988
  170UDC     C3 1862  18.022   4.072  15.423  0.6924 -0.5273 -0.0782
  170UDC     C4 1863  17.876   4.042  15.445  0.8165 -1.0703 -0.5990
  170UDC     C5 1864  17.787   4.165  15.429  0.0799 -0.4861  0.7943
  170UDC     C6 1865  17.868   4.279  15.494 -0.1550 -0.5694  0.4539
  170UDC     C7 1866  17.813   4.417  15.453  0.3407  0.9461  0.3324
  170UDC     C8 1867  17.904   4.535  15.494  0.4975  0.1838  0.6854
  170UDC     C9 1868  17.951   4.559  15.638 -0.2721 -0.0988  0.2635
  170UDC    C10 1869  18.013   4.698  15.634  0.9236  0.0368  0.3557
  170UDC    C11 1870  18.143   4.705  15.546 -0.6007  0.5657  0.1842
  171UDC     C1 1871  16.679  12.240   1.719 -0.8031  0.8806  0.6368
  171UDC     C2 1872  16.681  12.119   1.814 -0.0996  0.4508  0.0310
  171UDC     C3 1873  16.804  12.043   1.860  0.4577  0.5025 -0.4521
  171UDC     C4 1874  16.849  11.968   1.739 -0.5016  0.1205  0.7236
  171UDC     C5 1875  16.982  11.889   1.756  0.4282  0.2394  0.0640
  171UDC     C6 1876  17.048  11.851   1.626 -0.7796  0.1666  0.8335
  171UDC     C7 1877  16.953  11.821   1.508  0.7950 -0.1646  0.4891
  171UDC     C8 1878  16.978  11.697   1.427 -0.6235 -0.2177  0.4858
  171UDC     C9 1879  16.860  11.638   1.345 -0.0929 -0.5059  0.3072
  171UDC    C10 1880  16.850  11.486   1.375  0.5534 -0.2136 -0.2777
  171UDC    C11 1881  16.988  11.426   1.352 -0.0423 -0.4804  1.4834
  172UDC     C1 1882   9.496  18.472  14.529 -0.7566  0.3894 -0.5005
  172UDC     C2 1883   9.361  18.399  14.491 -0.0146  0.6870  0.0834
  172UDC     C3 1884   9.234  18.475  14.535  0.8098  0.4669  0.7805
  172UDC     C4 1885   9.101  18.397  14.506  0.3589  0.3273 -0.2197
  172UDC     C5 1886   9.095  18.264  14.578  1.3541  0.7842  0.0631
  172UDC     C6 1887   8.950  18.201  14.581  0.6642 -0.3231 -0.1774
  172UDC     C7 1888   8.926  18.079  14.681 -0.8760  0.1222  0.8152
  172UDC     C8 1889   9.034  17.960  14.661  1.2511  0.1189  0.0053
  172UDC     C9 1890   9.027  17.859  14.779 -1.5301  0.3977  0.0469
  172UDC    C10 1891   9.109  17.733  14.743  0.1466 -0.2405 -0.5619
  172UDC    C11 1892   9.126  17.657  14.877 -1.0870 -0.6003 -0.1822
  173UDC     C1 1893   1.737   8.373  12.104 -1.4469 -0.2530  0.9757
  173UDC     C2 1894   1.603   8.417  12.036 -1.1349 -0.1492 -0.5797
  173UDC     C3 1895   1.532   8.495  12.135  0.2408 -0.8677 -0.0993
  173UDC     C4 1896   1.614   8.563  12.243 -0.9323 -0.7338  1.2108
  173UDC     C5 1897   1.545   8.689  12.293  0.5921 -0.3572 -0.6548
  173UDC     C6 1898   1.522   8.813  12.207  0.2473 -0.3113 -0.5722
  173UDC     C7 1899   1.646   8.876  12.147  0.6254  1.0170  0.1894
  173UDC     C8 1900   1.598   8.950  12.017  1.2517  0.2746  0.8214
  173UDC     C9 1901   1.450   9.001  12.037 -0.9603  0.1156 -0.4042
  173UDC    C10 1902   1.397   9.091  11.926  0.5328 -0.7452  0.1263
  173UDC    C11 1903   1.288   9.180  11.981  0.7687  0.0757 -0.0476
  174UDC     C1 1904  10.440  10.882  10.141  0.6092  0.3048  0.3271
  174UDC     C2 1905  10.360  11.009  10.144  0.3966 -0.9277  0.3684
  174UDC     C3 1906  10.214  10.963  10.151  0.0283 -0.5785  0.3736
  174UDC     C4 1907  10.182  10.886  10.017 -0.4962  0.4272 -0.7395
  174UDC     C5 1908  10.060  10.797  10.040 -0.2084  0.7339 -0.3374
  174UDC     C6 1909   9.936  10.851  10.115  0.3729 -0.4163  1.2917
  174UDC     C7 1910   9.826  10.742  10.140 -0.0319  0.0484  0.4262
  174UDC     C8 1911   9.691  10.804  10.181 -0.0017  0.7472  0.5058
  174UDC     C9 1912   9.642  10.729  10.310 -0.7123 -0.2251 -0.1469
  174UDC    C10 1913   9.511  10.762  10.379  1.1319 -1.1045 -0.6482
  174UDC    C11 1914   9.515  10.716  10.526 -0.4470 -0.1114 -0.0959
  175UDC     C1 1915  17.782   0.127  19.688 -0.7406  0.3416  0.9343
  175UDC     C2 1916  17.690   0.153  19.803  0.0213 -0.0466 -1.0439
  175UDC     C3 1917  17.561   0.070  19.802 -0.2958 -0.1175 -0.2542
  175UDC     C4 1918  17.566  -0.081  19.824  0.5204 -0.9574  0.5052
  175UDC     C5 1919  17.439  -0.157  19.808 -0.6919  0.2231 -0.3870
  175UDC     C6 1920  17.458  -0.311  19.809  0.0384 -0.3889 -0.6919
  175UDC     C7 1921  17.515  -0.382  19.687 -0.2546 -0.0520 -0.4655
  175UDC     C8 1922  17.425  -0.354  19.568 -0.0349  0.0844 -0.2241
  175UDC     C9 1923  17.526  -0.360  19.453 -0.3703  1.2053 -0.3305
  175UDC    C10 1924  17.458  -0.316  19.324  0.9025 -0.3844  0.0954
  175UDC    C11 1925  17.493  -0.432  19.222  0.1251  0.3418 -0.6029
  176UDC     C1 1926   7.335  14.979  11.514 -0.5568  0.5280  0.9350
  176UDC     C2 1927   7.235  14.997  11.621  0.1651  0.5875 -0.3380
  176UDC     C3 1928   7.139  14.875  11.650  0.2879  0.8992 -0.7555
  176UDC     C4 1929   6.994  14.916  11.704 -1.0044 -0.4088 -0.3137
  176UDC     C5 1930   6.968  15.070  11.707  0.0470  0.1082  0.2983
  176UDC     C6 1931   6.846  15.121  11.784  0.4837 -0.5070 -0.2661
  176UDC     C7 1932   6.846  15.265  11.828  1.3694  0.1240 -0.2448
  176UDC     C8 1933   6.758  15.273  11.953 -1.0561 -0.0032  0.3461
  176UDC     C9 1934   6.608  15.241  11.908 -0.9666 -0.3384  0.2601
  176UDC    C10 1935   6.498  15.252  12.018 -0.0172 -0.8151  0.3154
  176UDC    C11 1936   6.523  15.176  12.153  0.1304 -0.1028  0.5504
  177UDC     C1 1937  12.337  11.748  11.917 -1.2261 -0.6424  0.6145
  177UDC     C2 1938  12.347  11.895  11.970  0.6067  1.2742  0.4031
  177UDC     C3 1939  12.243  11.915  12.082  0.0541  0.5608 -0.6171
  177UDC     C4 1940  12.102  11.947  12.047  0.3103  0.8336 -0.0308
  177UDC     C5 1941  12.108  12.053  11.937 -0.2124  0.3626 -0.4137
  177UDC     C6 1942  11.968  12.063  11.862  1.2217  0.5065 -0.9410
  177UDC     C7 1943  11.952  12.157  11.742  0.7784 -0.8381  0.1660
  177UDC     C8 1944  12.000  12.304  11.763  0.5935  0.8814 -0.6799
  177UDC     C9 1945  11.937  12.406  11.666  0.6318  0.0434  0.2400
  177UDC    C10 1946  11.977  12.356  11.523  0.2418  0.2456 -0.4181
  177UDC    C11 1947  11.919  12.448  11.412 -0.5510 -0.2434  0.1465
  178UDC     C1 1948  13.845  15.495  15.793  0.2169  0.6203 -1.0871
  178UDC     C2 1949  13.930  15.578  15.699  0.2929  0.7729  1.0770
  178UDC     C3 1950  13.961  15.482  15.586  0.7496  0.2947  0.6575
  178UDC     C4 1951  13.966  15.346  15.653 -0.2322 -0.0889 -0.1866
  178UDC     C5 1952  14.086  15.256  15.638  0.4956 -1.0947 -0.2093
  178UDC     C6 1953  14.076  15.113  15.699 -0.4044 -0.0419 -0.1785
  178UDC     C7 1954  13.972  15.031  15.614 -0.3364  0.1081  0.3061
  178UDC     C8 1955  13.847  14.975  15.687 -1.0283 -0.4410  0.0692
  178UDC     C9 1956  13.728  14.943  15.598  0.0257 -0.6831 -0.0801
  178UDC    C10 1957  13.603  14.905  15.671 -0.3424  0.0563 -0.4110
  178UDC    C11 1958  13.555  14.764  15.636 -0.1800 -0.5456  0.2772
  179UDC     C1 1959   6.604  11.380  10.501  0.5042 -0.9268 -0.7031
  179UDC     C2 1960   6.471  11.369  10.581  0.1788 -0.0798 -0.8830
  179UDC     C3 1961   6.352  11.309  10.512  0.1286  0.4516  0.1384
  179UDC     C4 1962   6.221  11.336  10.589  0.4135  0.7970  0.6131
  179UDC     C5 1963   6.126  11.399  10.483 -0.2865  1.2018  0.2957
  179UDC     C6 1964   6.006  11.460  10.554 -0.1749 -0.1760 -0.6024
  179UDC     C7 1965   5.890  11.377  10.574 -0.0836  0.0474 -0.8245
  179UDC     C8 1966   5.898  11.295  10.702 -0.1656 -0.1931  0.1932
  179UDC     C9 1967   5.784  11.299  10.800 -0.1696  0.3070  1.3725
  179UDC    C10 1968   5.816  11.221  10.922 -0.4698  0.5581  0.4599
  179UDC    C11 1969   5.750  11.269  11.045 -0.1716 -0.2727  0.4169
  180UDC     C1 1970   9.124   6.209  10.433 -0.6791  0.3355  0.4620
  180UDC     C2 1971   9.110   6.058  10.402 -0.2003 -0.3096  0.9947
  180UDC     C3 1972   8.981   5.993  10.455 -0.2627 -0.5154 -0.1962
  180UDC     C4 1973   8.901   5.916  10.344  0.3054 -0.0438  0.6258
  180UDC     C5 1974   8.861   5.994  10.214 -0.4433 -0.2818 -0.3094
  180UDC     C6 1975   8.720   6.039  10.212  0.8548 -0.6894  0.4145
  180UDC     C7 1976   8.684   6.148  10.106  0.5325  0.3161  0.4765
  180UDC     C8 1977   8.537   6.200  10.135 -1.4336  0.9590 -0.9794
  180UDC     C9 1978   8.438   6.086  10.132 -0.7241 -0.1023 -0.5893
  180UDC    C10 1979   8.283   6.101  10.158 -0.2202  0.3733  0.2660
  180UDC    C11 1980   8.202   5.967  10.143  0.4501 -0.4678  0.3371
  181UDC     C1 1981   4.509  19.463   5.668  1.0001  0.7648  0.2208
  181UDC     C2 1982   4.520  19.587   5.757 -0.3254  0.1675  0.9854
  181UDC     C3 1983   4.664  19.638   5.801 -0.1327  0.5878  0.5208
  181UDC     C4 1984   4.650  19.728   5.925 -0.7226 -0.5720  0.4311
  181UDC     C5 1985   4.765  19.831   5.915 -0.8285 -0.2179 -0.0612
  181UDC     C6 1986   4.742  19.939   6.024 -0.4262 -0.1660 -0.1309
  181UDC     C7 1987   4.860  20.037   6.052  0.6679  0.2210 -0.4056
  181UDC     C8 1988   4.956  19.965   6.137  0.1765  0.5333  0.5461
  181UDC     C9 1989   5.057  20.080   6.149 -0.9361  0.4731  1.0721
  181UDC    C10 1990   5.186  20.106   6.068 -1.0627  0.6690  0.2884
  181UDC    C11 1991   5.241  20.242   6.136 -0.7034  0.7142  0.1597
  182UDC     C1 1992  13.957  19.507  12.026 -1.0537  0.4054  0.2563
  182UDC     C2 1993  13.967  19.641  12.109  0.2079  1.1367  1.7793
  182UDC     C3 1994  14.005  19.610  12.252 -0.7625  1.0624 -0.4079
  182UDC     C4 1995  14.126  19.513  12.276 -0.0654  0.3648 -0.5658
  182UDC     C5 1996  14.159  19.484  12.427  0.0097  0.0119 -0.0988
  182UDC     C6 1997  14.207  19.622  12.489 -0.4274  0.5713 -0.0337
  182UDC     C7 1998  14.281  19.618  12.623 -0.4944  0.5842  0.3729
  182UDC     C8 1999  14.426  19.569  12.618  0.4754  1.2224  0.4085
  182UDC     C9 2000  14.502  19.558  12.753  0.9886 -0.3911  0.6152
  182UDC    C10 2001  14.499  19.650  12.868  0.4374  0.5023  0.4910
  182UDC    C11 2002  14.401  19.630  12.986 -0.3451 -0.8442  0.2180
  183UDC     C1 2003  18.653   3.407  14.137  0.1250  0.4716  0.9060
  183UDC     C2 2004  18.708   3.508  14.238 -0.2131 -0.1226 -0.2665
  183UDC     C3 2005  18.675   3.482  14.385  0.4035 -0.6945 -0.3591
  183UDC     C4 2006  18.522   3.498  14.409 -0.2112 -1.1494  0.3450
  183UDC     C5 2007  18.459   3.635  14.374 -0.1712 -0.4380  0.3398
  183UDC     C6 2008  18.306   3.643  14.366  1.1230  0.5405  0.9078
  183UDC     C7 2009  18.270   3.676  14.218  0.3393 -0.4337  0.2580
  183UDC     C8 2010  18.325   3.807  14.163  0.2692  0.1517 -0.3488
  183UDC     C9 2011  18.270   3.856  14.030  0.5784 -0.3721 -0.5812
  183UDC    C10 2012  18.216   4.000  14.062 -0.0224  0.0350  0.7284
  183UDC    C11 2013  18.341   4.093  14.054  0.3255 -0.4286 -0.2030
  184UDC     C1 2014   5.014  13.143  10.566  0.5299  0.7870  0.7272
  184UDC     C2 2015   5.086  13.133  10.430  0.1111 -0.1881 -0.6498
  184UDC     C3 2016   5.036  13.212  10.316  0.2608  0.6049 -0.0695
  184UDC     C4 2017   4.904  13.166  10.258 -0.0721 -0.1527 -1.4320
  184UDC     C5 2018   4.831  13.259  10.164  0.1250  0.1186 -0.0645
  184UDC     C6 2019   4.799  13.395  10.227  0.5007  0.2921  0.6009
  184UDC     C7 2020   4.816  13.512  10.128  0.5478  0.0735 -0.1595
  184UDC     C8 2021   4.762  13.495   9.982  0.6386 -0.1661 -0.8387
  184UDC     C9 2022   4.800  13.585   9.867 -0.5991  1.2591  0.2131
  184UDC    C10 2023   4.709  13.520   9.756 -1.0980 -0.6149  1.6329
  184UDC    C11 2024   4.762  13.390   9.698  0.6645 -0.2007 -1.0250
  185UDC     C1 2025  13.849  19.232  16.094 -0.4670 -1.3356 -0.6240
  185UDC     C2 2026  13.780  19.115  16.030  0.0689  0.3447 -0.2203
  185UDC     C3 2027  13.877  19.021  15.958 -0.1060 -0.2467 -0.0315
  185UDC     C4 2028  13.983  18.962  16.056  1.5990 -0.0208 -0.8989
  185UDC     C5 2029  14.100  18.913  15.975 -0.1614  0.0404 -1.1481
  185UDC     C6 2030  14.213  18.835  16.057  0.2195  0.3440  0.4990
  185UDC     C7 2031  14.322  18.775  15.972 -0.1517  0.4628  0.0748
  185UDC     C8 2032  14.449  18.740  16.050 -0.5301 -1.1102  0.0189
  185UDC     C9 2033  14.567  18.715  15.953  0.5518 -0.1863  0.2513
  185UDC    C10 2034  14.688  18.651  16.028 -0.0447  0.1122  0.6381
  185UDC    C11 2035  14.792  18.593  15.931  0.3004 -0.8278  0.9451
  186UDC     C1 2036  16.786   7.882   0.669  1.5822  0.3268  0.2644
  186UDC     C2 2037  16.724   7.788   0.558 -0.3336 -0.9137 -0.0630
  186UDC     C3 2038  16.771   7.649   0.591 -1.4133 -1.0717  0.2339
  186UDC     C4 2039  16.740   7.600   0.726 -0.4643  0.2982 -0.5746
  186UDC     C5 2040  16.862   7.539   0.786 -1.1728  0.6185 -0.4677
  186UDC     C6 2041  16.947   7.454   0.691 -0.3267 -1.1029 -0.1056
  186UDC     C7 2042  17.043   7.358   0.767 -0.6103 -0.3535  0.7474
  186UDC     C8 2043  17.174   7.402   0.842 -0.1894  1.3056 -0.8481
  186UDC     C9 2044  17.220   7.328   0.974 -0.3621  0.5797 -0.2583
  186UDC    C10 2045  17.120   7.340   1.084 -0.2598 -0.4025  0.3646
  186UDC    C11 2046  17.010   7.235   1.099 -0.7544  0.5048 -0.2379
  187UDC     C1 2047  19.931  11.993  14.345  0.0748  0.2547  0.8203
  187UDC     C2 2048  19.998  11.899  14.438  0.3548 -0.4150 -2.0617
  187UDC     C3 2049  19.910  11.883  14.566 -0.7730  0.6704  1.0121
  187UDC     C4 2050  19.931  11.741  14.627  0.3400 -0.4300  0.4739
  187UDC     C5 2051  20.083  11.730  14.635 -0.6803  0.5224 -0.6969
  187UDC     C6 2052  20.133  11.811  14.757  0.0640 -0.0738 -0.1866
  187UDC     C7 2053  20.275  11.863  14.741  0.5185  0.7612 -0.6925
  187UDC     C8 2054  20.335  11.880  14.883  0.5664 -0.0737  0.6260
  187UDC     C9 2055  20.488  11.907  14.891  0.6706  0.8698  0.0017
  187UDC    C10 2056  20.535  11.949  15.034 -0.4202  0.7234 -1.4981
  187UDC    C11 2057  20.486  11.838  15.134  0.1662 -0.0039 -0.4947
  188UDC     C1 2058   0.661  14.720   3.522  0.0101  0.6680  0.3509
  188UDC     C2 2059   0.705  14.642   3.390  0.2843  0.3642 -0.3981
  188UDC     C3 2060   0.740  14.494   3.422  0.3815 -0.1722  0.2116
  188UDC     C4 2061   0.704  14.392   3.314  0.3621 -0.4254  0.2387
  188UDC     C5 2062   0.730  14.241   3.338 -0.6026  0.1273 -0.7306
  188UDC     C6 2063   0.850  14.195   3.264 -0.4569 -0.2392  1.1399
  188UDC     C7 2064   0.841  14.211   3.112 -1.2764 -0.0864 -0.6505
  188UDC     C8 2065   0.827  14.081   3.028 -1.3471  0.3313 -0.4823
  188UDC     C9 2066   0.948  14.085   2.930 -0.4900 -0.9457 -0.3029
  188UDC    C10 2067   0.957  13.965   2.843  0.1178  0.1800  0.3261
  188UDC    C11 2068   0.936  13.816   2.893 -0.0586  0.2167  0.0016
  189UDC     C1 2069   2.213   6.992  15.795  0.1148  0.4345 -1.1568
  189UDC     C2 2070   2.091   6.968  15.883 -0.7775  0.0572 -0.5097
  189UDC     C3 2071   2.144   6.956  16.028 -0.1849  0.0297 -0.0675
  189UDC     C4 2072   2.029   6.939  16.131  0.2592 -0.9409  1.6339
  189UDC     C5 2073   2.072   6.930  16.273  0.4350  0.7849  1.2340
  189UDC     C6 2074   1.980   6.944  16.392  0.2642  0.0016  0.1834
  189UDC     C7 2075   2.060   6.940  16.524 -1.8018  1.0870 -0.4229
  189UDC     C8 2076   1.989   6.906  16.659  0.3516  0.2264 -0.8874
  189UDC     C9 2077   1.936   6.764  16.664 -0.1442 -0.6923 -1.1734
  189UDC    C10 2078   1.817   6.744  16.762  0.3642  0.3762 -0.0065
  189UDC    C11 2079   1.827   6.592  16.791  0.1591  0.7866  0.7612
  190UDC     C1 2080  16.846  12.281  14.783 -0.4883 -0.4937 -1.4120
  190UDC     C2 2081  16.950  12.375  14.729  0.1471  0.3688  0.0613
  190UDC     C3 2082  17.097  12.339  14.686 -0.0156  0.2048  0.4257
  190UDC     C4 2083  17.159  12.213  14.756  0.0734 -0.4889 -0.2652
  190UDC     C5 2084  17.318  12.207  14.750  1.0552  0.0613 -0.7000
  190UDC     C6 2085  17.387  12.113  14.852  0.3752 -0.3555  0.3627
  190UDC     C7 2086  17.375  12.170  14.992 -0.0076  0.0896 -0.9513
  190UDC     C8 2087  17.490  12.263  15.035  0.7446  0.7028 -0.4652
  190UDC     C9 2088  17.479  12.352  15.170 -0.8016 -0.1882 -0.0252
  190UDC    C10 2089  17.605  12.427  15.219  0.9238 -0.1635  0.2897
  190UDC    C11 2090  17.632  12.420  15.367 -0.1576  0.5546  0.2350
  191UDC     C1 2091  13.211   9.929  13.874  0.1546 -0.3592  0.9139
  191UDC     C2 2092  13.361   9.947  13.904 -0.2368  0.0492  0.6470
  191UDC     C3 2093  13.423   9.817  13.948 -0.2629 -0.7833 -0.0152
  191UDC     C4 2094  13.362   9.783  14.083  0.7646  0.5380  0.2575
  191UDC     C5 2095  13.449   9.666  14.152  0.2927 -0.9272 -0.1943
  191UDC     C6 2096  13.589   9.723  14.196  0.9069 -0.2322 -1.0754
  191UDC     C7 2097  13.592   9.863  14.268 -0.8916 -0.8243 -0.3856
  191UDC     C8 2098  13.732   9.919  14.290  0.2796 -0.1163 -0.2701
  191UDC     C9 2099  13.741  10.045  14.378 -0.6905  1.2860 -0.0729
  191UDC    C10 2100  13.871  10.130  14.350  0.6474  0.6817 -1.0327
  191UDC    C11 2101  13.999  10.058  14.349 -0.0654 -0.0995 -0.2861
  192UDC     C1 2102   5.728  14.444  13.503 -0.5962 -1.0481 -0.4204
  192UDC     C2 2103   5.760  14.392  13.363  0.1805  0.3002  0.4808
  192UDC     C3 2104   5.638  14.355  13.274 -0.3302 -0.0572  0.7587
  192UDC     C4 2105   5.700  14.313  13.142 -0.3361 -1.0089 -0.4071
  192UDC     C5 2106   5.593  14.239  13.061 -0.2185  0.0406  0.4165
  192UDC     C6 2107   5.649  14.201  12.928  0.1770 -0.7015  1.0179
  192UDC     C7 2108   5.560  14.102  12.850 -0.7786  0.4875  0.6938
  192UDC     C8 2109   5.412  14.154  12.849  0.7937  0.1692 -0.4645
  192UDC     C9 2110   5.309  14.070  12.773  0.1459  0.9747 -0.2642
  192UDC    C10 2111   5.334  13.921  12.793  0.9831 -0.1915  1.4179
  192UDC    C11 2112   5.223  13.816  12.772  0.7414 -0.2434  0.4750
  193UDC     C1 2113  13.222  10.853   2.700 -0.2179  0.5541 -0.0049
  193UDC     C2 2114  13.274  10.965   2.606  0.0164  0.3312 -0.0158
  193UDC     C3 2115  13.425  10.958   2.571 -0.1761  0.3931 -0.0911
  193UDC     C4 2116  13.518  10.994   2.689  0.6746 -0.0522 -1.4043
  193UDC     C5 2117  13.663  11.011   2.630 -0.3724 -0.5349  0.1092
  193UDC     C6 2118  13.730  10.875   2.611 -0.0926 -0.8972 -0.6172
  193UDC     C7 2119  13.886  10.872   2.599 -0.3191 -0.4046  0.1384
  193UDC     C8 2120  13.983  10.877   2.725  0.8071 -0.1825  0.2084
  193UDC     C9 2121  13.998  11.016   2.788  1.1354  0.0281 -0.7833
  193UDC    C10 2122  14.093  11.007   2.907 -0.6035  0.2756 -0.6881
  193UDC    C11 2123  14.100  11.155   2.951  0.3348  0.7728  0.3263
  194UDC     C1 2124   1.998  16.166   4.570 -0.5163 -1.3474  0.2976
  194UDC     C2 2125   1.966  16.167   4.723  0.6349 -0.2369  0.6930
  194UDC     C3 2126   2.019  16.282   4.815  0.5919 -0.7774 -0.4921
  194UDC     C4 2127   2.148  16.255   4.891  0.4378 -0.2070 -0.2046
  194UDC     C5 2128   2.273  16.317   4.819  1.4438  0.0714 -0.1124
  194UDC     C6 2129   2.312  16.473   4.819  0.2896  1.1052 -0.0296
  194UDC     C7 2130   2.351  16.522   4.961 -0.8583 -0.1104 -0.0428
  194UDC     C8 2131   2.499  16.513   5.007  0.3397 -0.3453  0.4814
  194UDC     C9 2132   2.574  16.390   4.947  0.0275  0.0120 -1.2496
  194UDC    C10 2133   2.583  16.261   5.029  0.4389  0.8000  0.0645
  194UDC    C11 2134   2.731  16.244   5.066 -0.0053  0.8584 -0.6416
  195UDC     C1 2135  15.162  11.914   0.339  1.1235 -0.2364  0.1569
  195UDC     C2 2136  15.027  11.969   0.326 -0.6741 -0.3466 -0.9976
  195UDC     C3 2137  14.922  11.920   0.432 -1.2353  0.8804 -0.0409
  195UDC     C4 2138  14.923  11.954   0.584  1.4226  0.7223  0.4635
  195UDC     C5 2139  14.907  12.103   0.629  0.2285  0.2577 -0.0148
  195UDC     C6 2140  14.819  12.210   0.550 -0.9728  0.2900 -0.2608
  195UDC     C7 2141  14.866  12.351   0.606  1.0407 -0.2417 -0.0976
  195UDC     C8 2142  14.794  12.462   0.514 -0.3960  0.8787 -2.3826
  195UDC     C9 2143  14.731  12.429   0.379 -0.0969 -0.7186  0.0702
  195UDC    C10 2144  14.653  12.552   0.305 -0.2533 -0.2255 -0.4862
  195UDC    C11 2145  14.595  12.534   0.169 -0.6420 -0.7653  0.8904
  196UDC     C1 2146  19.436   3.899   6.210  1.1228  0.7886  0.2797
  196UDC     C2 2147  19.497   4.038   6.252 -0.7449 -0.0402  0.4118
  196UDC     C3 2148  19.493   4.079   6.404  0.1145  1.0063  0.0189
  196UDC     C4 2149  19.560   4.212   6.425  0.5269 -0.3346 -0.4721
  196UDC     C5 2150  19.643   4.240   6.555  0.3815  0.4360 -0.3287
  196UDC     C6 2151  19.590   4.162   6.683  0.4367  0.5982  0.7073
  196UDC     C7 2152  19.683   4.049   6.729  0.0027  1.6445 -0.5552
  196UDC     C8 2153  19.645   3.987   6.864  0.1066  0.5730 -0.2298
  196UDC     C9 2154  19.502   3.919   6.877 -1.0872 -0.1939  0.2908
  196UDC    C10 2155  19.476   3.782   6.809  0.3428  0.0312 -0.7535
  196UDC    C11 2156  19.435   3.790   6.658 -0.0717 -0.2783 -0.5480
  197UDC     C1 2157  15.399  12.213  19.935  1.2358  0.3841  0.6684
  197UDC     C2 2158  15.351  12.248  20.073  1.0810  0.1576  0.6132
  197UDC     C3 2159  15.473  12.264  20.159  0.4593 -0.4435  1.0714
  197UDC     C4 2160  15.440  12.363  20.277  0.0203  0.1595 -0.5143
  197UDC     C5 2161  15.557  12.342  20.374 -0.3825  0.5549 -0.3567
  197UDC     C6 2162  15.630  12.475  20.420  0.3991 -0.6479 -0.3187
  197UDC     C7 2163  15.762  12.435  20.488  0.3269  0.3162  0.6290
  197UDC     C8 2164  15.862  12.547  20.519 -0.4321 -0.0687  0.0917
  197UDC     C9 2165  15.854  12.587  20.674 -1.7394  0.4732 -0.1178
  197UDC    C10 2166  15.927  12.717  20.723 -0.2293 -0.4452 -0.8482
  197UDC    C11 2167  15.955  12.807  20.602 -0.3220  0.7731 -0.1278
  198UDC     C1 2168   2.820  16.696  11.047 -0.1374 -0.0777 -0.0102
  198UDC     C2 2169   2.691  16.637  10.977 -1.1256 -0.2283  1.1228
  198UDC     C3 2170   2.691  16.654  10.823  0.2132 -0.8900 -0.3908
  198UDC     C4 2171   2.629  16.793  10.786  0.0007 -0.0249  1.1142
  198UDC     C5 2172   2.624  16.812  10.631  0.0734 -0.1082  1.3326
  198UDC     C6 2173   2.562  16.945  10.593  1.1720 -0.4242  0.2635
  198UDC     C7 2174   2.647  17.072  10.616  0.0126  0.0747 -1.3798
  198UDC     C8 2175   2.767  17.088  10.521  0.4666 -0.4472 -0.2439
  198UDC     C9 2176   2.709  17.122  10.381  0.7185  0.3158 -0.5953
  198UDC    C10 2177   2.803  17.120  10.258 -0.4794  0.6465  0.4412
  198UDC    C11 2178   2.946  17.170  10.282  1.4587 -0.1141 -1.1221
  199UDC     C1 2179   6.372  16.039  15.273  0.0898  0.7014 -0.2177
  199UDC     C2 2180   6.484  16.082  15.170 -0.2050 -0.7610  1.1558
  199UDC     C3 2181   6.587  15.972  15.147  0.6430  0.7586 -1.1110
  199UDC     C4 2182   6.542  15.823  15.114  0.4392 -0.2460  0.1735
  199UDC     C5 2183   6.664  15.747  15.058 -0.4940 -0.7070 -0.2492
  199UDC     C6 2184   6.640  15.763  14.908  1.0573 -0.6479  0.5787
  199UDC     C7 2185   6.757  15.729  14.827 -0.3118 -0.8134 -0.9608
  199UDC     C8 2186   6.749  15.651  14.696  0.0181 -0.2127 -0.2016
  199UDC     C9 2187   6.865  15.687  14.603 -0.4717 -0.2851  0.4022
  199UDC    C10 2188   6.987  15.739  14.676  0.3953  0.6574 -1.1201
  199UDC    C11 2189   7.085  15.777  14.566  0.5336 -0.0716  0.9280
  200UDC     C1 2190   0.643   1.704   4.951 -0.1266  0.8906 -0.2260
  200UDC     C2 2191   0.629   1.855   4.933  0.2175  0.9435  0.7058
  200UDC     C3 2192   0.685   1.910   5.064 -0.7712  0.1847 -0.6533
  200UDC     C4 2193   0.835   1.877   5.065 -0.1131 -0.1461 -0.0040
  200UDC     C5 2194   0.948   1.961   4.992  0.0171  0.1722 -0.0373
  200UDC     C6 2195   1.089   1.943   5.053 -0.3545  0.6473  0.4987
  200UDC     C7 2196   1.178   2.039   4.975 -0.4175 -0.2220 -0.9608
  200UDC     C8 2197   1.315   1.970   4.972  0.0771  0.9833 -0.4997
  200UDC     C9 2198   1.436   2.048   4.911  0.1150  0.2072 -0.8602
  200UDC    C10 2199   1.440   2.169   5.011  0.1921  0.9714 -0.4216
  200UDC    C11 2200   1.567   2.246   4.971 -0.0206  0.2071 -1.1092
  201UDC     C1 2201  13.836   5.417  19.928  0.2613  0.0922 -0.6553
  201UDC     C2 2202  13.818   5.546  19.852  0.7237  0.1699  0.2071
  201UDC     C3 2203  13.845   5.524  19.700  0.0590  0.0852  0.1232
  201UDC     C4 2204  13.892   5.661  19.638 -1.4277 -0.7840  0.2348
  201UDC     C5 2205  14.035   5.653  19.572 -0.2826 -0.1704 -0.6613
  201UDC     C6 2206  14.088   5.792  19.535  0.3602 -0.4420  0.5795
  201UDC     C7 2207  14.210   5.774  19.436 -0.5010  0.4084  0.9075
  201UDC     C8 2208  14.286   5.910  19.419 -0.0915  0.5677  0.5562
  201UDC     C9 2209  14.342   5.961  19.555  0.2568 -0.3804  0.0696
  201UDC    C10 2210  14.467   6.051  19.544  0.5268 -0.9847 -0.3989
  201UDC    C11 2211  14.441   6.203  19.522 -0.2211  0.6884 -1.1422
  202UDC     C1 2212   1.453  14.440   6.809  0.5215  0.3083 -0.7877
  202UDC     C2 2213   1.605  14.443   6.798  0.9660 -0.3456  0.9763
  202UDC     C3 2214   1.686  14.534   6.898  0.7110  0.5485  0.0171
  202UDC     C4 2215   1.679  14.499   7.049 -1.2913  0.3162  0.2186
  202UDC     C5 2216   1.763  14.594   7.144  0.0810  0.0675 -0.5160
  202UDC     C6 2217   1.827  14.505   7.254 -0.6801 -0.3921 -0.3011
  202UDC     C7 2218   1.958  14.567   7.297 -0.3059  0.4962 -0.9404
  202UDC     C8 2219   2.030  14.482   7.401  0.2752 -0.4264  0.0762
  202UDC     C9 2220   2.170  14.511   7.432  0.3709 -0.0891  0.0368
  202UDC    C10 2221   2.210  14.614   7.540 -0.3638  1.0138 -0.2085
  202UDC    C11 2222   2.365  14.618   7.562 -0.1211  0.1915  0.3596
  203UDC     C1 2223   0.620  12.293   2.993  1.0497 -0.6534 -0.5971
  203UDC     C2 2224   0.691  12.414   2.923 -0.1747  0.5536  0.0848
  203UDC     C3 2225   0.608  12.501   2.834 -0.5060  1.1719  0.2166
  203UDC     C4 2226   0.509  12.594   2.907 -0.3946 -0.1188  0.1306
  203UDC     C5 2227   0.405  12.669   2.826  0.0291  0.2505  0.2288
  203UDC     C6 2228   0.432  12.757   2.703  1.0601 -1.0902 -0.1227
  203UDC     C7 2229   0.527  12.876   2.728  0.4126  0.6491 -0.6654
  203UDC     C8 2230   0.613  12.920   2.607  0.9817 -0.4335 -0.3076
  203UDC     C9 2231   0.533  12.943   2.470 -0.1091  0.1666 -0.4227
  203UDC    C10 2232   0.430  13.062   2.466 -0.8230 -1.0563  0.5078
  203UDC    C11 2233   0.510  13.194   2.475 -0.5335  0.2430 -0.6481
  204UDC     C1 2234  15.380  10.925  14.800 -0.8266 -1.2233 -0.4210
  204UDC     C2 2235  15.321  10.971  14.939 -0.4617  0.6428 -0.8854
  204UDC     C3 2236  15.389  10.908  15.062  0.5978 -0.3881 -0.1518
  204UDC     C4 2237  15.505  10.992  15.112  0.2704 -0.3350 -0.0740
  204UDC     C5 2238  15.478  11.132  15.161  0.6515 -1.4705  0.7034
  204UDC     C6 2239  15.606  11.207  15.205  0.9542 -0.1372 -0.6444
  204UDC     C7 2240  15.703  11.113  15.285  0.8785  0.7960 -0.3876
  204UDC     C8 2241  15.851  11.130  15.259 -0.9487  0.3107 -0.3036
  204UDC     C9 2242  15.970  11.053  15.325 -0.2418 -0.4128  0.3579
  204UDC    C10 2243  16.036  10.959  15.229  0.2947  0.0920 -0.2763
  204UDC    C11 2244  16.155  10.897  15.305  0.0320 -0.5195  0.5415
  205UDC     C1 2245   8.109   6.359   2.519 -0.7445 -0.0945  0.3919
  205UDC     C2 2246   8.212   6.244   2.567 -0.0909  0.1537  0.7812
  205UDC     C3 2247   8.312   6.287   2.677 -0.0556 -0.8444  0.3023
  205UDC     C4 2248   8.440   6.206   2.695  0.0154 -1.0788  0.3578
  205UDC     C5 2249   8.556   6.240   2.607 -0.6913  0.3777  0.9186
  205UDC     C6 2250   8.556   6.337   2.484  0.2833  0.6963 -0.4017
  205UDC     C7 2251   8.687   6.342   2.397  0.3270  0.4490 -0.1208
  205UDC     C8 2252   8.686   6.446   2.289 -0.9186  0.7423  0.4286
  205UDC     C9 2253   8.736   6.590   2.328 -0.5337  0.8656 -0.0766
  205UDC    C10 2254   8.864   6.627   2.251  0.1038 -0.1402 -0.8491
  205UDC    C11 2255   8.852   6.626   2.098  0.0459 -0.7304  0.7234
  206UDC     C1 2256   2.877   9.464   7.578  0.7780 -0.0768  0.2198
  206UDC     C2 2257   2.898   9.453   7.427  0.3282  0.1299  0.0556
  206UDC     C3 2258   3.002   9.524   7.346  0.3417 -0.2846  0.7459
  206UDC     C4 2259   3.134   9.463   7.399 -0.0977  0.1370  0.6591
  206UDC     C5 2260   3.260   9.459   7.306  0.1559 -0.0493 -0.1373
  206UDC     C6 2261   3.219   9.384   7.181  0.2337 -1.1645  0.4287
  206UDC     C7 2262   3.340   9.375   7.076 -0.0697 -0.8554 -0.5237
  206UDC     C8 2263   3.462   9.303   7.130  1.0597 -0.4415 -0.7088
  206UDC     C9 2264   3.592   9.358   7.080 -0.1427  0.7470 -0.2326
  206UDC    C10 2265   3.648   9.485   7.145 -0.5093  0.1112 -0.6266
  206UDC    C11 2266   3.805   9.492   7.141  0.1892  1.4060  1.0055
  207UDC     C1 2267  19.709  19.449  11.239  0.2235  0.0039  0.4904
  207UDC     C2 2268  19.851  19.487  11.201 -0.0330  0.0735 -0.6593
  207UDC     C3 2269  19.906  19.405  11.082  1.7751 -0.0628  1.3409
  207UDC     C4 2270  20.021  19.477  11.014 -0.4610  0.5459  0.1310
  207UDC     C5 2271  20.049  19.452  10.860  0.5103 -0.2667  0.8657
  207UDC     C6 2272  19.944  19.515  10.754 -0.4221  1.1346  0.0833
  207UDC     C7 2273  19.993  19.622  10.651 -0.1136 -0.2437  1.3073
  207UDC     C8 2274  20.045  19.748  10.727 -0.3589  0.6372 -0.3373
  207UDC     C9 2275  20.190  19.803  10.701 -0.3369 -0.3017 -0.7457
  207UDC    C10 2276  20.237  19.908  10.802  0.4222 -0.1816 -0.0411
  207UDC    C11 2277  20.224  20.045  10.721 -0.3059  0.2315  0.1809
  208UDC     C1 2278   8.626  17.784  14.354 -0.3501  0.3384 -0.0314
  208UDC     C2 2279   8.707  17.659  14.408  0.3315  1.4652  0.3977
  208UDC     C3 2280   8.641  17.576  14.524 -0.3382  0.4309  0.8339
  208UDC     C4 2281   8.599  17.661  14.643 -0.0901 -0.0330 -0.5505
  208UDC     C5 2282   8.551  17.575  14.760  0.5744 -0.7433  0.9446
  208UDC     C6 2283   8.519  17.431  14.729 -1.1313  0.2694  1.0804
  208UDC     C7 2284   8.463  17.364  14.855 -1.7139  0.1440  0.1971
  208UDC     C8 2285   8.573  17.378  14.968  0.5908 -0.0179  0.2776
  208UDC     C9 2286   8.526  17.401  15.111 -0.3363 -0.4437 -0.0008
  208UDC    C10 2287   8.654  17.431  15.196 -0.4972  0.9899 -1.3583
  208UDC    C11 2288   8.769  17.472  15.102  0.2125 -0.4340  0.0929
  209UDC     C1 2289   6.425   9.973   6.527 -0.1887  0.5421 -0.3692
  209UDC     C2 2290   6.458   9.861   6.429  1.0003  0.3378 -0.0355
  209UDC     C3 2291   6.434   9.923   6.292  0.3795  0.8272 -0.2483
  209UDC     C4 2292   6.444   9.817   6.174 -0.0178 -0.3820  0.3331
  209UDC     C5 2293   6.416   9.903   6.047  0.1380 -0.3775  0.2225
  209UDC     C6 2294   6.455   9.825   5.915  0.1256 -1.1690 -0.1313
  209UDC     C7 2295   6.390   9.901   5.800 -0.4750 -0.9749  0.2924
  209UDC     C8 2296   6.375   9.826   5.661 -0.4892  0.2178 -1.0861
  209UDC     C9 2297   6.506   9.829   5.579 -0.0434 -0.9448 -0.1383
  209UDC    C10 2298   6.478   9.810   5.421 -0.0883 -1.4857  0.0195
  209UDC    C11 2299   6.607   9.802   5.338  0.3172 -0.1339  0.5048
  210UDC     C1 2300  18.393  17.051  13.455  0.0950  0.6171 -0.6979
  210UDC     C2 2301  18.421  16.950  13.347 -0.1018 -0.5359  0.2469
  210UDC     C3 2302  18.544  16.858  13.370  0.6997  1.3997  0.3394
  210UDC     C4 2303  18.668  16.943  13.368  0.2904 -0.5688  0.7376
  210UDC     C5 2304  18.705  16.986  13.222  0.2527  0.1649  1.2753
  210UDC     C6 2305  18.848  17.023  13.220 -0.5901 -0.1541  0.5815
  210UDC     C7 2306  18.939  16.900  13.254  0.8245  1.0321 -0.1590
  210UDC     C8 2307  19.070  16.915  13.187 -0.8391  0.6319 -0.4784
  210UDC     C9 2308  19.158  16.789  13.222 -0.3211  0.1948 -0.8523
  210UDC    C10 2309  19.296  16.825  13.290 -0.5888  0.8083 -0.5790
  210UDC    C11 2310  19.345  16.684  13.314 -0.2922 -0.5921 -0.4714
  211UDC     C1 2311   6.644  18.235  12.064  0.1624  0.3715 -0.2883
  211UDC     C2 2312   6.758  18.188  11.974  0.8953  0.7658 -0.1468
  211UDC     C3 2313   6.821  18.054  12.005  0.0356 -1.0412  0.0818
  211UDC     C4 2314   6.904  18.047  12.138  0.7629 -0.2145  0.6596
  211UDC     C5 2315   6.952  17.905  12.189 -0.1562 -0.4289 -0.4954
  211UDC     C6 2316   7.084  17.854  12.137 -0.1807 -0.6887 -0.6355
  211UDC     C7 2317   7.161  17.756  12.227  1.0234  0.0069 -0.3138
  211UDC     C8 2318   7.311  17.789  12.202 -0.7156  0.3706  0.8218
  211UDC     C9 2319   7.417  17.749  12.307  0.2495  0.0559 -1.2165
  211UDC    C10 2320   7.445  17.859  12.407 -0.1316 -0.8186 -0.4812
  211UDC    C11 2321   7.546  17.812  12.510 -0.6538 -0.7618 -0.0627
  212UDC     C1 2322  10.757  11.201  13.752 -0.4270 -0.1385  0.7977
  212UDC     C2 2323  10.867  11.181  13.856 -1.1380 -0.5870 -0.0739
  212UDC     C3 2324  10.970  11.294  13.859  0.2449 -0.6459 -0.0455
  212UDC     C4 2325  10.912  11.432  13.907 -0.3942  0.4553 -0.7298
  212UDC     C5 2326  11.003  11.560  13.904 -0.5310  0.6733  0.8076
  212UDC     C6 2327  10.963  11.678  13.988 -0.0014  0.7787  0.1064
  212UDC     C7 2328  11.024  11.685  14.131  0.3347  0.1864  0.0237
  212UDC     C8 2329  11.083  11.832  14.145 -0.3370 -0.8031 -1.2883
  212UDC     C9 2330  11.147  11.881  14.015  0.2541  0.3691 -0.2920
  212UDC    C10 2331  11.254  11.985  14.008  0.1987  0.0714  0.9866
  212UDC    C11 2332  11.229  12.101  14.100 -0.0859  0.3081  0.1732
  213UDC     C1 2333  10.835   9.509  14.740 -0.7770 -0.4789  0.5390
  213UDC     C2 2334  10.761   9.621  14.661 -0.4622 -0.9360  0.1815
  213UDC     C3 2335  10.639   9.668  14.735  0.1110  0.5226  1.0456
  213UDC     C4 2336  10.537   9.753  14.665 -0.6766  0.5306 -0.8912
  213UDC     C5 2337  10.469   9.869  14.732  0.0279 -0.5945 -0.3183
  213UDC     C6 2338  10.424   9.847  14.874  0.0003 -0.8123  0.0820
  213UDC     C7 2339  10.295   9.774  14.918 -0.7436  0.3140  0.7477
  213UDC     C8 2340  10.183   9.807  14.818  0.0272 -0.1626  0.0139
  213UDC     C9 2341  10.106   9.935  14.821 -0.4598  0.4539 -0.6379
  213UDC    C10 2342   9.978   9.936  14.904  0.1229  0.3419 -0.4540
  213UDC    C11 2343   9.983   9.981  15.049 -0.2083 -0.7902 -0.4295
  214UDC     C1 2344   3.223   7.243   9.135 -0.7030  0.4575 -1.0418
  214UDC     C2 2345   3.144   7.153   9.039  0.0335 -0.8040  0.1926
  214UDC     C3 2346   3.086   7.027   9.092 -0.5276 -0.5444 -0.9285
  214UDC     C4 2347   2.978   6.944   9.025 -0.1975  0.4789  0.1012
  214UDC     C5 2348   2.984   6.917   8.884 -0.8240 -0.6378 -0.3202
  214UDC     C6 2349   2.941   7.031   8.781 -0.5100 -0.1815  1.0894
  214UDC     C7 2350   2.984   7.000   8.636  0.3768 -0.0439 -0.0664
  214UDC     C8 2351   3.027   6.855   8.597 -0.7941 -1.3160 -0.2655
  214UDC     C9 2352   3.102   6.868   8.470 -0.3976 -0.1822 -0.2242
  214UDC    C10 2353   3.066   6.772   8.359 -0.1383 -0.0849 -0.0606
  214UDC    C11 2354   2.926   6.763   8.304  0.6271  0.4366 -0.0583
  215UDC     C1 2355   7.430  15.443  19.735  0.5871  0.9511  0.4592
  215UDC     C2 2356   7.325  15.531  19.811 -0.2176  2.0693 -0.1224
  215UDC     C3 2357   7.394  15.652  19.876  1.2887  0.5109  0.1528
  215UDC     C4 2358   7.495  15.647  19.991  0.5375 -0.6247 -0.2690
  215UDC     C5 2359   7.641  15.653  19.933  0.0079 -0.4848 -0.4325
  215UDC     C6 2360   7.675  15.776  19.853  0.0985 -0.5597  0.1463
  215UDC     C7 2361   7.694  15.907  19.941 -0.7549  0.4455  0.6187
  215UDC     C8 2362   7.731  16.021  19.848  0.3483 -0.1503 -0.3106
  215UDC     C9 2363   7.786  16.145  19.930  0.9591 -0.2601 -0.0561
  215UDC    C10 2364   7.808  16.283  19.851  0.4270 -0.2601  0.1854
  215UDC    C11 2365   7.954  16.322  19.849  0.4372 -0.1193 -0.2503
  216UDC     C1 2366   0.388  14.215   8.198 -0.4352  0.3009  0.0042
  216UDC     C2 2367   0.443  14.355   8.238  0.3468  0.1584 -0.3802
  216UDC     C3 2368   0.335  14.463   8.235  0.4090 -0.9561  0.3727
  216UDC     C4 2369   0.246  14.445   8.367  1.0610  0.1779 -0.0428
  216UDC     C5 2370   0.137  14.548   8.390  0.7189 -1.0766 -0.9731
  216UDC     C6 2371   0.031  14.492   8.486 -0.0589  0.2242 -0.7076
  216UDC     C7 2372  -0.062  14.595   8.544 -0.4554 -1.2307  0.1658
  216UDC     C8 2373  -0.153  14.530   8.639  0.3562  0.1979 -0.3421
  216UDC     C9 2374  -0.138  14.593   8.785  0.5130 -0.5391  0.5539
  216UDC    C10 2375  -0.228  14.508   8.878 -0.0373 -0.1296 -0.6455
  216UDC    C11 2376  -0.362  14.568   8.895 -0.1940  0.6479  0.1815
  217UDC     C1 2377  17.864  10.257   5.304 -0.2563  1.2043 -0.5658
  217UDC     C2 2378  17.955  10.357   5.228 -1.0556 -0.7215  0.0297
  217UDC     C3 2379  18.064  10.399   5.332  0.9016 -0.1867  0.7919
  217UDC     C4 2380  18.132  10.531   5.306 -1.1176 -0.0161 -1.2285
  217UDC     C5 2381  18.246  10.521   5.211  0.6402 -0.1922  0.2267
  217UDC     C6 2382  18.339  10.401   5.237  0.1177  0.2628 -0.5191
  217UDC     C7 2383  18.452  10.384   5.132 -0.3550 -0.0682  0.2624
  217UDC     C8 2384  18.551  10.509   5.123 -0.2049 -0.0103 -0.2975
  217UDC     C9 2385  18.659  10.504   5.013  0.2621  0.5096 -0.2042
  217UDC    C10 2386  18.749  10.373   5.019  0.4212 -0.1440  0.1818
  217UDC    C11 2387  18.865  10.362   4.911 -0.5271 -0.4178 -0.0206
  218UDC     C1 2388   4.836   8.875  19.224  0.1304  0.3445  0.7777
  218UDC     C2 2389   4.859   8.739  19.149  1.1132 -0.6531  0.2556
  218UDC     C3 2390   4.889   8.612  19.244  0.4725  0.0437  0.7645
  218UDC     C4 2391   5.013   8.624  19.333  0.4221 -0.9117 -0.6644
  218UDC     C5 2392   4.992   8.518  19.444 -0.3830 -0.9739  0.1821
  218UDC     C6 2393   5.021   8.378  19.405  0.8039  0.3748  0.2740
  218UDC     C7 2394   5.041   8.281  19.524 -0.4760 -0.6747 -1.1414
  218UDC     C8 2395   5.017   8.125  19.509 -0.4752 -0.1760  0.5380
  218UDC     C9 2396   4.884   8.049  19.531  0.9733 -0.5307 -0.7937
  218UDC    C10 2397   4.915   7.938  19.638 -0.3965 -0.4735  0.3318
  218UDC    C11 2398   4.794   7.844  19.668 -0.5229 -0.9280  0.4435
  219UDC     C1 2399   9.315   8.694   1.700  0.1419 -0.4216  0.2902
  219UDC     C2 2400   9.263   8.557   1.650  0.4922 -0.3790 -0.5777
  219UDC     C3 2401   9.231   8.540   1.502 -0.2268 -0.4568  0.7121
  219UDC     C4 2402   9.093   8.586   1.436 -0.4633 -0.2420  0.8758
  219UDC     C5 2403   8.966   8.525   1.493  0.3745 -0.4492  0.6604
  219UDC     C6 2404   8.845   8.547   1.397 -0.0274 -0.0444 -0.8361
  219UDC     C7 2405   8.791   8.691   1.380 -0.5901 -0.0107  0.0477
  219UDC     C8 2406   8.718   8.730   1.250  0.6465  0.3095 -0.3446
  219UDC     C9 2407   8.685   8.875   1.247  0.2825 -1.0539  0.0498
  219UDC    C10 2408   8.631   8.967   1.137 -0.4794  0.4847  0.7589
  219UDC    C11 2409   8.689   9.110   1.123  0.8515  0.4049  0.0047
  220UDC     C1 2410   9.442  13.739   7.199 -0.4538 -0.9032  0.8001
  220UDC     C2 2411   9.380  13.598   7.195 -0.0107  0.4491 -0.0772
  220UDC     C3 2412   9.480  13.489   7.149  0.0497 -0.1922 -0.0741
  220UDC     C4 2413   9.413  13.355   7.160  0.5863  1.6210 -0.1922
  220UDC     C5 2414   9.483  13.234   7.091  0.1661 -0.4623  0.1712
  220UDC     C6 2415   9.635  13.237   7.053  0.1616  0.5988  0.1009
  220UDC     C7 2416   9.677  13.275   6.909  0.1547  0.2384  0.1043
  220UDC     C8 2417   9.663  13.150   6.818  0.8075 -0.0901  0.6572
  220UDC     C9 2418   9.763  13.143   6.707  0.0453  0.0136 -0.6149
  220UDC    C10 2419   9.790  12.990   6.679  0.4556  0.3523  0.2038
  220UDC    C11 2420   9.889  12.973   6.566 -0.6895  0.5492  0.9376
  221UDC     C1 2421  13.497  15.332   4.840  0.5414  1.3850  1.6692
  221UDC     C2 2422  13.354  15.376   4.871  0.5956  0.0973 -0.1982
  221UDC     C3 2423  13.262  15.260   4.913 -0.5774 -0.6617  0.7023
  221UDC     C4 2424  13.309  15.189   5.038  0.6314  0.4864  0.1120
  221UDC     C5 2425  13.207  15.081   5.097 -1.6006 -0.0573  0.0860
  221UDC     C6 2426  13.168  14.958   5.020  0.3736  0.5969 -0.0565
  221UDC     C7 2427  13.284  14.849   5.028 -0.0829  0.0899  0.1257
  221UDC     C8 2428  13.319  14.758   4.907  0.9996 -0.0501  0.6179
  221UDC     C9 2429  13.387  14.628   4.951  0.1142 -0.2574  0.8670
  221UDC    C10 2430  13.414  14.548   4.822 -0.1784 -1.3972  0.6695
  221UDC    C11 2431  13.448  14.399   4.835  0.3258  0.3905  0.5707
  222UDC     C1 2432  14.594   8.076  11.667  1.0117 -0.1769  0.0918
  222UDC     C2 2433  14.694   8.104  11.556  1.2026  0.5148 -0.0538
  222UDC     C3 2434  14.839   8.112  11.589 -0.6065  0.0534 -1.0028
  222UDC     C4 2435  14.868   8.245  11.663 -0.1495 -0.3458  0.4923
  222UDC     C5 2436  15.022   8.259  11.653 -0.6216  0.4978 -0.9998
  222UDC     C6 2437  15.084   8.157  11.759  0.1221 -0.3353 -0.2672
  222UDC     C7 2438  15.052   8.189  11.910 -0.5368 -1.6819 -0.4176
  222UDC     C8 2439  15.161   8.142  12.002 -0.9524 -1.1883 -0.5551
  222UDC     C9 2440  15.207   8.007  11.942 -0.3305  0.5405 -0.2945
  222UDC    C10 2441  15.310   7.938  12.033  0.7510 -0.3694  0.2294
  222UDC    C11 2442  15.237   7.836  12.123  0.0719  0.5875  0.5752
  223UDC     C1 2443   1.965   1.017  12.715 -0.5702  0.5902 -0.4335
  223UDC     C2 2444   1.989   0.913  12.610  0.2856 -0.1497  0.1541
  223UDC     C3 2445   2.109   0.976  12.536  0.4716  0.0260 -0.1676
  223UDC     C4 2446   2.164   0.878  12.433  0.1261  0.6276 -0.5241
  223UDC     C5 2447   2.062   0.893  12.309  0.0248  0.5757  0.0788
  223UDC     C6 2448   2.051   1.036  12.255 -0.1354 -0.0551  0.2936
  223UDC     C7 2449   1.910   1.092  12.217 -0.7872  0.6934 -1.2679
  223UDC     C8 2450   1.817   1.067  12.339  0.3055  0.1223 -0.9812
  223UDC     C9 2451   1.701   0.959  12.343 -0.4738 -0.4991 -0.4351
  223UDC    C10 2452   1.641   0.916  12.474  0.2990 -0.1361 -0.0370
  223UDC    C11 2453   1.507   0.836  12.477  0.1367 -0.4907  0.0039
  224UDC     C1 2454   2.261   9.875  13.447 -0.7228  0.0688  0.6722
  224UDC     C2 2455   2.269   9.985  13.560 -0.1404  0.2419  0.4973
  224UDC     C3 2456   2.137  10.049  13.578  1.0944  0.4354  1.0594
  224UDC     C4 2457   2.091  10.128  13.457  0.6324 -1.1201 -0.6353
  224UDC     C5 2458   1.935  10.118  13.462  0.5616 -1.0112  0.1921
  224UDC     C6 2459   1.887  10.257  13.509  0.5819 -0.2253  0.3970
  224UDC     C7 2460   1.750  10.242  13.575  0.3046 -0.7951  0.4844
  224UDC     C8 2461   1.718  10.144  13.684 -0.0501  1.3074 -0.1789
  224UDC     C9 2462   1.583  10.175  13.752 -0.3889 -0.6281 -0.1298
  224UDC    C10 2463   1.499  10.293  13.688 -0.4268 -1.1774 -0.2031
  224UDC    C11 2464   1.352  10.284  13.715  0.1890  0.7121  0.1448
  225UDC     C1 2465  17.988   7.692  12.762 -0.2773  0.5410  0.8859
  225UDC     C2 2466  17.970   7.786  12.645  0.5336  0.6453  0.2572
  225UDC     C3 2467  18.109   7.804  12.575 -0.3864 -0.0127  0.5544
  225UDC     C4 2468  18.217   7.858  12.675 -0.4464  0.0578 -0.8389
  225UDC     C5 2469  18.185   8.003  12.720  0.5507  0.1890 -1.0594
  225UDC     C6 2470  18.209   8.086  12.604 -0.1581  0.1304  1.1095
  225UDC     C7 2471  18.115   8.210  12.599  0.1367 -0.2175 -0.0860
  225UDC     C8 2472  18.096   8.278  12.469  0.9499  0.7427  0.3860
  225UDC     C9 2473  18.002   8.402  12.484  0.2592  0.4424  0.3907
  225UDC    C10 2474  18.004   8.505  12.360 -0.3720 -0.0126 -0.5166
  225UDC    C11 2475  17.981   8.443  12.226  0.4760 -0.1797  0.3415
  226UDC     C1 2476  13.402   5.538   5.218  0.7517 -0.3715  0.0843
  226UDC     C2 2477  13.321   5.585   5.096  0.3809 -0.6243  0.5457
  226UDC     C3 2478  13.171   5.555   5.103  0.8467  0.7778  0.7767
  226UDC     C4 2479  13.106   5.569   5.242  0.0457 -1.9500  0.5055
  226UDC     C5 2480  13.098   5.716   5.291  0.6389  0.2236 -0.0367
  226UDC     C6 2481  13.026   5.726   5.424  0.6412  0.6611 -0.2204
  226UDC     C7 2482  12.929   5.850   5.440  0.6238  0.1068  0.6707
  226UDC     C8 2483  12.998   5.989   5.404 -0.6897  0.0980  0.3118
  226UDC     C9 2484  12.954   6.111   5.486 -1.5280  0.8055  1.0814
  226UDC    C10 2485  12.842   6.188   5.411  0.5223 -0.3074  1.1189
  226UDC    C11 2486  12.734   6.096   5.344 -0.1606 -0.2549 -0.3041
  227UDC     C1 2487  13.919   4.643   1.504  0.0784  0.2583  0.0158
  227UDC     C2 2488  13.876   4.519   1.425 -0.5573  0.0736 -0.4459
  227UDC     C3 2489  13.986   4.424   1.383  0.4811  0.1158 -1.3168
  227UDC     C4 2490  13.942   4.296   1.313 -0.7807  0.3446 -0.1051
  227UDC     C5 2491  13.823   4.307   1.211 -0.5976 -0.0098 -0.2471
  227UDC     C6 2492  13.753   4.187   1.146  1.8531  1.0838 -0.5719
  227UDC     C7 2493  13.604   4.217   1.115 -1.1401  0.2362  0.2524
  227UDC     C8 2494  13.552   4.113   1.014 -0.5224 -0.0814  0.5070
  227UDC     C9 2495  13.571   3.972   1.059  1.1339 -0.2530  0.5471
  227UDC    C10 2496  13.495   3.872   0.964  0.0764  0.5342  0.3540
  227UDC    C11 2497  13.483   3.717   0.984  0.3172 -0.0017 -1.7740
  228UDC     C1 2498   1.691  17.078  18.784  0.4787 -0.2188  0.4778
  228UDC     C2 2499   1.567  17.149  18.855 -0.4634 -0.6196  0.5450
  228UDC     C3 2500   1.572  17.302  18.863 -1.0479  0.2666 -0.6294
  228UDC     C4 2501   1.440  17.381  18.906  0.7880  0.1858  0.8994
  228UDC     C5 2502   1.427  17.532  18.875  0.7715 -0.3064 -1.0628
  228UDC     C6 2503   1.275  17.578  18.863  0.2907 -0.2037 -0.0808
  228UDC     C7 2504   1.199  17.549  18.732  0.7496 -0.2191  0.4108
  228UDC     C8 2505   1.056  17.608  18.760  0.1768 -0.2461 -0.5103
  228UDC     C9 2506   0.984  17.515  18.863  0.0007  0.3233  0.5599
  228UDC    C10 2507   0.863  17.600  18.897 -0.0264 -0.4054 -0.1776
  228UDC    C11 2508   0.904  17.738  18.956  0.0411  0.1210  0.4429
  229UDC     C1 2509  14.823   5.872   9.335  0.5577 -0.1368 -0.6927
  229UDC     C2 2510  14.908   5.927   9.456 -0.8571  0.4892 -0.0694
  229UDC     C3 2511  15.009   6.038   9.424  0.4150 -0.4057  0.6336
  229UDC     C4 2512  14.954   6.166   9.344  0.4692  0.2057 -0.0150
  229UDC     C5 2513  15.050   6.271   9.266  0.5084 -0.8651 -0.6661
  229UDC     C6 2514  14.977   6.345   9.147 -0.2456 -0.4930 -1.0860
  229UDC     C7 2515  15.040   6.480   9.109 -0.1465 -0.0978  0.2615
  229UDC     C8 2516  15.022   6.571   9.225 -0.0638 -0.1629  0.2974
  229UDC     C9 2517  15.079   6.720   9.227 -0.7722  0.9221  0.4962
  229UDC    C10 2518  15.036   6.826   9.321  0.8760 -0.6477 -0.5145
  229UDC    C11 2519  15.145   6.927   9.334 -1.1415  0.2536  0.9490
  230UDC     C1 2520   2.340   9.354  19.275  0.2603 -0.1513 -0.2711
  230UDC     C2 2521   2.229   9.456  19.264 -0.7779 -0.6690  1.1010
  230UDC     C3 2522   2.145   9.431  19.137  1.1789 -0.6496  0.6667
  230UDC     C4 2523   2.040   9.534  19.094 -0.7117  0.7245  0.6519
  230UDC     C5 2524   2.098   9.668  19.046  0.8765 -0.0774  0.6868
  230UDC     C6 2525   2.040   9.742  18.924  0.7509  1.0462  0.0601
  230UDC     C7 2526   2.087   9.679  18.791  0.9065  0.2475  0.2506
  230UDC     C8 2527   1.994   9.749  18.687 -0.2734  1.1082 -1.0014
  230UDC     C9 2528   2.049   9.715  18.545  0.0805  0.2490 -1.0268
  230UDC    C10 2529   2.001   9.603  18.454  0.4736  0.7616  0.6600
  230UDC    C11 2530   2.062   9.653  18.321  0.1930 -0.3260  0.3231
  231UDC     C1 2531   8.983  10.337   6.704  0.2457 -0.5759 -0.1958
  231UDC     C2 2532   9.103  10.235   6.716 -0.1597 -0.5982  0.1351
  231UDC     C3 2533   9.104  10.140   6.831  0.8946 -0.0208  0.2289
  231UDC     C4 2534   9.208  10.033   6.824 -0.7941  0.2406  0.2696
  231UDC     C5 2535   9.310  10.036   6.708 -0.0187  0.1072  0.7907
  231UDC     C6 2536   9.446   9.975   6.745 -1.6085  0.5547  0.3661
  231UDC     C7 2537   9.454   9.827   6.792  0.5936 -0.7124  0.5290
  231UDC     C8 2538   9.582   9.744   6.765 -0.5979  0.3372  0.3900
  231UDC     C9 2539   9.587   9.720   6.612 -0.0963  0.9690  0.7514
  231UDC    C10 2540   9.499   9.612   6.536 -1.4319 -1.7247 -0.0168
  231UDC    C11 2541   9.552   9.569   6.398  0.6412 -0.0974  0.4536
  232UDC     C1 2542   8.565   2.625  17.884  0.2019 -0.2130  0.4109
  232UDC     C2 2543   8.573   2.593  18.037  1.5359 -0.0142 -0.0459
  232UDC     C3 2544   8.448   2.658  18.113 -0.9409 -1.5906 -0.2324
  232UDC     C4 2545   8.311   2.634  18.049  0.9281  0.9387  0.8887
  232UDC     C5 2546   8.203   2.713  18.128  0.1001 -0.5540  1.2942
  232UDC     C6 2547   8.059   2.721  18.073 -0.0903  1.4146 -0.1285
  232UDC     C7 2548   8.054   2.771  17.933  0.0066 -0.2819  0.4620
  232UDC     C8 2549   8.052   2.927  17.922  0.4258 -0.5196  0.5303
  232UDC     C9 2550   8.114   2.969  17.781 -0.2987 -0.1714  1.0231
  232UDC    C10 2551   8.159   3.120  17.753  0.0955 -0.3251 -0.4972
  232UDC    C11 2552   8.153   3.137  17.598  0.3272 -0.4749  0.0264
  233UDC     C1 2553   3.741  13.212  19.796 -1.2267 -0.3749 -0.3933
  233UDC     C2 2554   3.788  13.352  19.845 -0.9127 -0.6612 -0.3811
  233UDC     C3 2555   3.944  13.359  19.823 -0.6423 -0.8373 -0.4918
  233UDC     C4 2556   4.002  13.229  19.873 -1.3688  0.0854 -0.3626
  233UDC     C5 2557   4.151  13.233  19.864 -0.5840 -0.9347 -0.2212
  233UDC     C6 2558   4.233  13.110  19.823 -1.1926 -0.0721 -0.1132
  233UDC     C7 2559   4.144  13.029  19.720 -0.3610 -0.6250  0.1245
  233UDC     C8 2560   4.230  12.983  19.597  0.5865 -0.0750 -0.5553
  233UDC     C9 2561   4.133  12.927  19.499  0.6617 -0.5175 -0.5882
  233UDC    C10 2562   4.037  13.042  19.456  0.5176  0.3594  1.1346
  233UDC    C11 2563   3.925  12.979  19.362 -0.1709  0.4845 -0.6581
  234UDC     C1 2564   1.964  12.425  17.498 -1.3778  1.1304 -0.1230
  234UDC     C2 2565   1.836  12.375  17.563 -1.1037  0.5802 -0.6015
  234UDC     C3 2566   1.853  12.238  17.626 -0.2974  0.2078 -0.5596
  234UDC     C4 2567   1.781  12.211  17.755 -0.0360  0.7611 -1.4517
  234UDC     C5 2568   1.711  12.073  17.772  1.3433  0.4063 -0.3811
  234UDC     C6 2569   1.723  12.005  17.911  0.0210  0.5642 -0.3947
  234UDC     C7 2570   1.645  11.871  17.916 -0.6137  0.7121 -0.3999
  234UDC     C8 2571   1.492  11.877  17.924  1.0070 -1.0039 -0.4586
  234UDC     C9 2572   1.424  11.907  18.063  0.5893 -0.3547  0.8374
  234UDC    C10 2573   1.281  11.902  18.100  0.5562  0.2022  0.2404
  234UDC    C11 2574   1.251  12.034  18.179 -0.5776 -0.5044  0.2760
  235UDC     C1 2575   0.020   7.669   9.322 -0.0020  0.6122 -0.6741
  235UDC     C2 2576   0.156   7.728   9.297  1.1475 -0.6055  1.2037
  235UDC     C3 2577   0.273   7.667   9.367 -0.3926  0.5041  0.6066
  235UDC     C4 2578   0.266   7.691   9.516 -0.3188 -0.5628 -0.1177
  235UDC     C5 2579   0.365   7.633   9.620  1.1426 -0.0908  0.5520
  235UDC     C6 2580   0.324   7.671   9.761 -0.0368  0.2961 -0.5058
  235UDC     C7 2581   0.187   7.621   9.805  0.7026  2.2066  0.0551
  235UDC     C8 2582   0.157   7.468   9.796  0.2021  0.6976 -0.0130
  235UDC     C9 2583   0.056   7.435   9.913  0.3930  1.1244  0.0406
  235UDC    C10 2584  -0.083   7.468   9.875  2.5134  0.4819 -0.3124
  235UDC    C11 2585  -0.164   7.564   9.972  0.3723  0.0411 -0.7611
  236UDC     C1 2586  11.739  16.722   2.418 -0.0956  1.1482 -0.6285
  236UDC     C2 2587  11.645  16.839   2.401  0.7126  0.2299  0.2628
  236UDC     C3 2588  11.505  16.788   2.350 -0.0883  0.5757 -0.0112
  236UDC     C4 2589  11.415  16.722   2.451  0.1112 -0.9504 -0.9795
  236UDC     C5 2590  11.381  16.809   2.573 -0.0942  0.3945  0.4622
  236UDC     C6 2591  11.435  16.746   2.707  0.4676  1.3986  0.7205
  236UDC     C7 2592  11.443  16.829   2.842  0.1533 -0.4603  1.0916
  236UDC     C8 2593  11.535  16.773   2.947  0.3988  0.3779  0.6776
  236UDC     C9 2594  11.628  16.885   3.003 -0.9855 -0.4572 -0.3006
  236UDC    C10 2595  11.747  16.857   3.104  0.7476 -0.1633 -0.4678
  236UDC    C11 2596  11.817  16.988   3.137  0.6342  0.3923  0.6053
  237UDC     C1 2597   7.806  15.660   6.355  0.8517 -0.2740  0.6858
  237UDC     C2 2598   7.736  15.526   6.352 -0.5448  0.3055 -1.2403
  237UDC     C3 2599   7.830  15.412   6.318 -0.4983 -0.1639  0.2201
  237UDC     C4 2600   7.786  15.266   6.358  0.1845  1.3344  0.3622
  237UDC     C5 2601   7.839  15.147   6.263 -0.0728 -0.1325 -0.4100
  237UDC     C6 2602   7.995  15.144   6.293  0.1264 -0.2021 -0.1287
  237UDC     C7 2603   8.054  15.006   6.244 -0.1526 -0.8641 -0.7560
  237UDC     C8 2604   7.982  14.886   6.286  0.1977  1.5772  0.0972
  237UDC     C9 2605   8.052  14.763   6.240 -0.6813  0.5097  1.7055
  237UDC    C10 2606   7.998  14.635   6.313 -0.5286  0.1690  0.7405
  237UDC    C11 2607   7.987  14.514   6.215 -0.1633 -0.5314  0.0444
  238UDC     C1 2608   3.905   4.908  10.545  0.3033  0.1583  0.0848
  238UDC     C2 2609   3.862   4.973  10.676  0.5537  0.3599  0.0041
  238UDC     C3 2610   3.853   5.128  10.676  0.6510  0.0951  0.0164
  238UDC     C4 2611   3.811   5.180  10.809 -0.7594  0.4187  0.6927
  238UDC     C5 2612   3.923   5.268  10.857  0.4613 -0.6843  0.2112
  238UDC     C6 2613   3.858   5.342  10.975 -0.1289 -0.0058 -0.2825
  238UDC     C7 2614   3.949   5.420  11.073  1.1317  0.2943 -0.5409
  238UDC     C8 2615   3.891   5.503  11.185  0.1116  0.8382 -0.8322
  238UDC     C9 2616   3.806   5.619  11.135 -0.5779 -0.6053  0.3449
  238UDC    C10 2617   3.746   5.677  11.265 -0.1469  0.4335  0.1862
  238UDC    C11 2618   3.611   5.749  11.247 -0.7375 -0.0388 -0.1381
  239UDC     C1 2619  15.301  10.844   6.905  1.3614 -0.2219 -0.4427
  239UDC     C2 2620  15.354  10.854   6.759 -0.7157  0.3122  0.4699
  239UDC     C3 2621  15.251  10.876   6.644 -0.0095  0.7439 -0.3419
  239UDC     C4 2622  15.303  10.897   6.499 -0.2623  0.2944 -0.3354
  239UDC     C5 2623  15.347  10.769   6.423  0.2263 -0.8705 -0.6748
  239UDC     C6 2624  15.412  10.804   6.294 -0.9150  0.2669 -0.4201
  239UDC     C7 2625  15.559  10.780   6.287 -0.2006 -0.5223  0.9053
  239UDC     C8 2626  15.629  10.655   6.329  0.7634 -0.6770 -0.5789
  239UDC     C9 2627  15.780  10.659   6.316  0.2768  1.0043  0.9843
  239UDC    C10 2628  15.854  10.545   6.378 -1.0141 -0.2310  0.7576
  239UDC    C11 2629  15.807  10.401   6.357  0.5483 -0.6575  0.8179
  240UDC     C1 2630   4.229  10.806   7.179  1.5357  0.3825 -0.1698
  240UDC     C2 2631   4.310  10.930   7.192 -0.1777  0.4040  0.2153
  240UDC     C3 2632   4.281  11.039   7.077 -1.1443 -0.4071  1.1282
  240UDC     C4 2633   4.353  11.167   7.129  0.5880  0.5544  0.0360
  240UDC     C5 2634   4.354  11.291   7.032 -0.1628 -0.8862 -1.1183
  240UDC     C6 2635   4.495  11.339   6.985 -0.3235  0.0015 -0.6281
  240UDC     C7 2636   4.606  11.350   7.088 -0.5467 -0.7672  0.8048
  240UDC     C8 2637   4.726  11.412   6.998  0.0972  0.6735 -0.1748
  240UDC     C9 2638   4.838  11.478   7.076  1.4179 -0.5892 -0.2051
  240UDC    C10 2639   4.911  11.420   7.200  0.3904  0.0938  0.9357
  240UDC    C11 2640   5.040  11.497   7.237 -1.1421  0.2606 -0.0877
  241UDC     C1 2641  11.189   2.532   1.167  0.5021  0.0331 -0.7008
  241UDC     C2 2642  11.044   2.524   1.217  1.5710  0.0666  0.2717
  241UDC     C3 2643  10.940   2.561   1.113 -0.3406  0.4073  1.1714
  241UDC     C4 2644  10.792   2.554   1.149  0.7892 -0.3960  1.3040
  241UDC     C5 2645  10.766   2.402   1.178 -0.2173 -1.3901 -0.5081
  241UDC     C6 2646  10.611   2.397   1.167 -1.0784 -0.6857 -1.3487
  241UDC     C7 2647  10.560   2.444   1.025  0.1432  0.0665 -0.4897
  241UDC     C8 2648  10.433   2.530   1.032  0.2679  0.2383  0.4323
  241UDC     C9 2649  10.319   2.511   1.134  0.9025  0.4984 -0.4436
  241UDC    C10 2650  10.191   2.585   1.081 -0.8122  0.6557 -0.2716
  241UDC    C11 2651  10.107   2.488   0.993 -0.5587 -0.9696 -0.1488
  242UDC     C1 2652   1.038  10.647  19.708  0.4948  0.8030 -0.8845
  242UDC     C2 2653   1.128  10.673  19.596  0.2253 -0.8609  1.0315
  242UDC     C3 2654   1.273  10.731  19.612 -0.3282 -1.2259 -0.4756
  242UDC     C4 2655   1.340  10.816  19.508 -0.7101  0.9748 -0.0821
  242UDC     C5 2656   1.481  10.846  19.567  0.2577 -0.2740 -0.9580
  242UDC     C6 2657   1.471  10.910  19.705  0.4078  0.5628  1.0478
  242UDC     C7 2658   1.614  10.940  19.757  1.3924 -0.0793  0.3080
  242UDC     C8 2659   1.713  10.830  19.747  0.3270  1.2631 -0.3295
  242UDC     C9 2660   1.691  10.699  19.827 -0.1198  0.0849 -0.0350
  242UDC    C10 2661   1.788  10.585  19.826 -1.9478  0.5446  0.0069
  242UDC    C11 2662   1.890  10.638  19.931  0.6148 -0.3847  0.2132
  243UDC     C1 2663   2.110   1.444  16.605  0.0869  1.2820 -0.5454
  243UDC     C2 2664   2.036   1.552  16.684 -0.4811 -1.0318 -1.4774
  243UDC     C3 2665   2.105   1.686  16.664  0.0397 -0.1842 -0.0137
  243UDC     C4 2666   2.259   1.684  16.683  0.8669 -0.5259 -0.4102
  243UDC     C5 2667   2.332   1.804  16.619 -0.9325  0.4759  1.1770
  243UDC     C6 2668   2.484   1.807  16.650 -0.0885 -0.0242  0.0599
  243UDC     C7 2669   2.562   1.680  16.602 -0.9238  0.6107  0.2825
  243UDC     C8 2670   2.710   1.668  16.641 -0.3033  1.2877  0.5434
  243UDC     C9 2671   2.744   1.660  16.791  0.3550  0.1282 -0.5585
  243UDC    C10 2672   2.885   1.703  16.839  0.1350  0.4045 -0.7484
  243UDC    C11 2673   2.993   1.596  16.832  0.2425 -0.3037  1.1540
  244UDC     C1 2674  16.018   7.535  18.547  0.6553  0.4105  0.8723
  244UDC     C2 2675  16.024   7.400  18.639 -1.2116 -0.1393  0.4423
  244UDC     C3 2676  15.901   7.324  18.677 -0.1258  0.7975 -0.6250
  244UDC     C4 2677  15.941   7.195  18.752  0.0788 -1.3143 -0.4605
  244UDC     C5 2678  15.841   7.105  18.826  0.4635  0.1097 -0.5680
  244UDC     C6 2679  15.792   7.181  18.958  0.6959  0.6377 -0.3226
  244UDC     C7 2680  15.727   7.108  19.076  1.3207  0.0378 -0.5134
  244UDC     C8 2681  15.710   7.199  19.202  0.7768 -0.7017 -0.2284
  244UDC     C9 2682  15.695   7.106  19.318  1.5190 -0.0500  0.3692
  244UDC    C10 2683  15.732   7.157  19.458  0.4519  0.3836 -0.5172
  244UDC    C11 2684  15.736   7.052  19.569 -0.6890 -0.0912  0.0086
  245UDC     C1 2685  11.555   2.973  11.012  0.4596  0.1310 -0.1498
  245UDC     C2 2686  11.607   2.835  11.044  0.1529  0.7460  0.1425
  245UDC     C3 2687  11.567   2.785  11.185  0.0105  0.3952  1.2971
  245UDC     C4 2688  11.678   2.694  11.233  0.0315 -0.2005  0.5159
  245UDC     C5 2689  11.660   2.576  11.339 -1.9081 -0.3764 -0.4165
  245UDC     C6 2690  11.798   2.513  11.372  0.3965  0.0176 -0.6342
  245UDC     C7 2691  11.836   2.524  11.511  1.1912  0.0243 -0.1575
  245UDC     C8 2692  11.860   2.666  11.557  0.3334  0.5252 -0.3845
  245UDC     C9 2693  11.764   2.714  11.662 -0.2541  0.6838 -0.2894
  245UDC    C10 2694  11.764   2.872  11.657 -0.3580 -0.0775  0.2798
  245UDC    C11 2695  11.745   2.945  11.793 -1.4022  0.6401  0.3959
  246UDC     C1 2696   1.810  13.253   3.874  0.3417  0.7071 -0.0184
  246UDC     C2 2697   1.671  13.243   3.937  0.0576  1.2905 -0.8206
  246UDC     C3 2698   1.669  13.141   4.058 -0.4064 -0.3673  0.2959
  246UDC     C4 2699   1.734  13.193   4.193 -0.8709  0.7304  0.4284
  246UDC     C5 2700   1.685  13.129   4.324  0.6703  0.3277 -0.3104
  246UDC     C6 2701   1.743  13.196   4.456 -1.1424  0.1144 -0.9957
  246UDC     C7 2702   1.880  13.130   4.499 -0.0282  0.0365  0.2245
  246UDC     C8 2703   1.852  12.980   4.509  0.5367 -1.2293  0.3826
  246UDC     C9 2704   1.964  12.905   4.576 -0.7525 -0.4266 -0.1830
  246UDC    C10 2705   1.961  12.755   4.569  0.9887 -0.3834 -0.6265
  246UDC    C11 2706   1.837  12.683   4.515  0.4753 -0.0480 -0.2246
  247UDC     C1 2707  11.331  17.327   9.266 -0.3400  0.5230 -0.9301
  247UDC     C2 2708  11.461  17.244   9.234  0.5782  0.0675 -0.0336
  247UDC     C3 2709  11.564  17.245   9.349  0.0155 -0.8891 -0.6557
  247UDC     C4 2710  11.587  17.387   9.404 -0.3083  0.0307 -0.7915
  247UDC     C5 2711  11.710  17.370   9.488 -0.7108 -0.2119  0.0554
  247UDC     C6 2712  11.849  17.385   9.423 -0.2669  0.0925 -0.4154
  247UDC     C7 2713  11.956  17.364   9.536  0.8951 -1.6184 -1.1553
  247UDC     C8 2714  11.892  17.265   9.637  0.8459 -0.0676  0.1097
  247UDC     C9 2715  11.950  17.283   9.778 -0.4446 -0.4004 -0.5416
  247UDC    C10 2716  12.027  17.162   9.832 -0.2478 -0.1116 -0.3611
  247UDC    C11 2717  11.956  17.077   9.933 -0.6249 -0.4282  0.1240
  248UDC     C1 2718  18.582  13.184   7.406  0.9669  0.3246 -0.2818
  248UDC     C2 2719  18.560  13.029   7.377 -0.5190 -0.0936 -0.1325
  248UDC     C3 2720  18.461  12.957   7.470  0.1629  0.1417  0.5644
  248UDC     C4 2721  18.513  12.843   7.562  0.1297 -0.8193 -1.1477
  248UDC     C5 2722  18.633  12.782   7.488 -1.0704  0.8865  0.1638
  248UDC     C6 2723  18.695  12.640   7.506 -0.5385  0.0533 -0.6552
  248UDC     C7 2724  18.742  12.604   7.648  0.7545 -0.6328 -0.5631
  248UDC     C8 2725  18.802  12.464   7.649  1.5656  0.2109 -0.4084
  248UDC     C9 2726  18.855  12.444   7.795  0.4043 -0.4954  0.4524
  248UDC    C10 2727  18.824  12.299   7.811  0.8127  0.9750  0.0866
  248UDC    C11 2728  18.823  12.222   7.684 -0.5029  0.3785 -0.7394
  249UDC     C1 2729   3.262   6.359   7.967 -0.3351 -0.6368 -0.2181
  249UDC     C2 2730   3.244   6.501   8.011 -0.1080  0.1096 -0.8466
  249UDC     C3 2731   3.348   6.605   7.981 -0.4131 -0.0735 -0.2395
  249UDC     C4 2732   3.317   6.674   7.846  0.6907 -0.1555 -0.4009
  249UDC     C5 2733   3.164   6.707   7.829  0.6393 -1.1021 -0.4635
  249UDC     C6 2734   3.109   6.756   7.692 -1.2538  0.3494  0.1538
  249UDC     C7 2735   3.223   6.744   7.588  0.1402  1.2863  0.1444
  249UDC     C8 2736   3.176   6.823   7.469 -0.1609 -0.3452 -0.0276
  249UDC     C9 2737   3.214   6.771   7.333  0.6364 -0.9998 -1.2217
  249UDC    C10 2738   3.179   6.877   7.221  0.9532 -0.1844 -0.1397
  249UDC    C11 2739   3.228   7.026   7.228  0.7364  0.8373 -0.1683
  250UDC     C1 2740   5.674   2.296   8.154  0.0454 -0.8979 -0.5926
  250UDC     C2 2741   5.562   2.278   8.258  0.4625 -0.3587  0.9222
  250UDC     C3 2742   5.631   2.221   8.387  0.3033 -0.4732  0.1188
  250UDC     C4 2743   5.550   2.128   8.476  0.1062 -0.0565  0.6355
  250UDC     C5 2744   5.646   2.037   8.556 -0.5221 -1.2047  0.5960
  250UDC     C6 2745   5.585   1.908   8.613 -1.0433 -0.0535  0.0275
  250UDC     C7 2746   5.624   1.852   8.758 -0.0511 -0.6057 -0.3426
  250UDC     C8 2747   5.551   1.723   8.789  0.6779  0.0554 -0.8898
  250UDC     C9 2748   5.402   1.734   8.750 -0.3315  0.9540 -1.1196
  250UDC    C10 2749   5.315   1.843   8.813  0.3102 -0.3483  0.6926
  250UDC    C11 2750   5.189   1.891   8.735  1.1268 -1.0334  0.1397
  251UDC     C1 2751  16.981   2.131   9.524  0.1693  0.1115  0.2691
  251UDC     C2 2752  16.982   2.282   9.554  0.6117 -0.3098 -0.0737
  251UDC     C3 2753  17.073   2.367   9.466  0.2949  0.0699 -0.7226
  251UDC     C4 2754  17.113   2.503   9.530 -0.4248  0.1460 -0.3377
  251UDC     C5 2755  17.190   2.463   9.654 -0.5089 -0.3703 -0.4350
  251UDC     C6 2756  17.210   2.584   9.747 -0.7459  0.9992 -0.5701
  251UDC     C7 2757  17.314   2.584   9.858  0.6372 -0.0662 -0.5262
  251UDC     C8 2758  17.459   2.596   9.813 -0.5611 -0.3684 -1.4227
  251UDC     C9 2759  17.553   2.671   9.914 -0.4228  0.2397 -1.3050
  251UDC    C10 2760  17.567   2.587  10.040  0.1100  0.2388 -1.1880
  251UDC    C11 2761  17.630   2.667  10.158  0.3325  0.1013 -0.6421
  252UDC     C1 2762   9.786  11.934   2.733  0.5434 -0.0533 -0.4131
  252UDC     C2 2763   9.796  11.814   2.640  0.1982 -0.4449 -1.1742
  252UDC     C3 2764   9.761  11.676   2.689 -0.5355  0.0802 -0.1674
  252UDC     C4 2765   9.856  11.631   2.801  1.0844  1.0779  1.3411
  252UDC     C5 2766   9.803  11.537   2.907 -0.2920  0.3838 -0.0797
  252UDC     C6 2767   9.920  11.574   3.002  0.2012  0.0416 -0.0416
  252UDC     C7 2768   9.875  11.697   3.083 -0.4086  0.2811  0.3145
  252UDC     C8 2769   9.982  11.780   3.155 -0.0193 -0.2881  0.3441
  252UDC     C9 2770   9.940  11.933   3.172 -0.2652 -0.6498  0.6293
  252UDC    C10 2771  10.025  12.025   3.262  0.3335  0.2945  0.2701
  252UDC    C11 2772   9.999  12.174   3.253  0.8415 -0.7681  0.1367
  253UDC     C1 2773  10.562  15.035   2.511  0.2388  0.2588 -0.0556
  253UDC     C2 2774  10.666  15.078   2.405  0.0432 -0.2015 -0.1338
  253UDC     C3 2775  10.778  14.981   2.367 -0.3106  0.0515  0.0724
  253UDC     C4 2776  10.752  14.858   2.276 -0.9241  0.5473 -0.2467
  253UDC     C5 2777  10.787  14.884   2.131  0.3161  0.0874 -0.1185
  253UDC     C6 2778  10.712  14.993   2.055 -0.2935  0.1344  0.5854
  253UDC     C7 2779  10.730  14.971   1.898 -0.8502 -0.0680 -0.3585
  253UDC     C8 2780  10.705  15.085   1.798 -1.0029  0.2545 -0.4155
  253UDC     C9 2781  10.757  15.055   1.648  1.2173  1.0761  0.7783
  253UDC    C10 2782  10.711  15.144   1.539  0.1174 -0.4126  0.0681
  253UDC    C11 2783  10.656  15.060   1.420  0.8675 -0.6885  0.9574
  254UDC     C1 2784  19.971   4.077  12.374  1.0271  0.4498 -0.6454
  254UDC     C2 2785  19.823   4.102  12.423 -0.3076 -0.5050 -0.1638
  254UDC     C3 2786  19.796   4.074  12.573  1.6040  1.6124  0.4896
  254UDC     C4 2787  19.883   4.158  12.670  0.4581 -0.3541  0.9345
  254UDC     C5 2788  19.838   4.120  12.817 -0.5495  0.3510 -0.5596
  254UDC     C6 2789  19.711   4.194  12.862 -0.0940  0.1907  0.0367
  254UDC     C7 2790  19.649   4.128  12.979  0.7045  0.9552 -0.4966
  254UDC     C8 2791  19.494   4.163  12.980  0.7026 -0.0941 -0.1507
  254UDC     C9 2792  19.478   4.317  12.955 -1.3799  0.5793 -1.6488
  254UDC    C10 2793  19.442   4.381  13.096  1.1015  0.3797 -0.2600
  254UDC    C11 2794  19.493   4.525  13.108  0.1329 -0.5470  0.2863
  255UDC     C1 2795   7.723  14.044   0.296 -0.2279  0.2612 -0.5333
  255UDC     C2 2796   7.607  14.125   0.356  0.8257  0.9825 -1.6861
  255UDC     C3 2797   7.592  14.089   0.509 -0.1218 -0.1828 -0.9017
  255UDC     C4 2798   7.729  14.118   0.578 -0.7425 -0.9626 -1.0086
  255UDC     C5 2799   7.685  14.128   0.727  1.9928  0.6743 -0.2434
  255UDC     C6 2800   7.790  14.178   0.835 -0.5495 -0.0845  1.0941
  255UDC     C7 2801   7.944  14.170   0.807  0.6533  0.2528 -1.2062
  255UDC     C8 2802   7.990  14.271   0.694  0.2734  0.5106 -0.8066
  255UDC     C9 2803   8.046  14.394   0.765 -0.5079 -0.2865 -0.3761
  255UDC    C10 2804   8.075  14.516   0.675  0.5354 -0.0240 -0.2613
  255UDC    C11 2805   7.943  14.565   0.621  0.0729 -0.0527 -0.2057
  256UDC     C1 2806   0.938  13.271   0.254 -0.1469 -0.6668 -0.0447
  256UDC     C2 2807   1.096  13.295   0.234  0.5806  0.4875  0.9631
  256UDC     C3 2808   1.151  13.421   0.306 -0.1151 -0.7998  0.1563
  256UDC     C4 2809   1.302  13.443   0.270 -0.5777 -1.1242 -0.1881
  256UDC     C5 2810   1.386  13.314   0.257 -0.9215 -0.0175 -0.8129
  256UDC     C6 2811   1.537  13.332   0.237 -0.5933  0.5000 -0.5779
  256UDC     C7 2812   1.562  13.420   0.121  0.1116 -0.1788 -0.0719
  256UDC     C8 2813   1.704  13.488   0.107  0.1983  0.2717  0.0796
  256UDC     C9 2814   1.717  13.559  -0.033 -1.1969  0.7071  0.0870
  256UDC    C10 2815   1.866  13.587  -0.062  0.0632 -0.2607 -0.4329
  256UDC    C11 2816   1.964  13.465  -0.043  0.3226 -0.2185  0.2477
  257UDC     C1 2817   2.121   6.051  14.125  0.8262  0.1987 -0.2087
  257UDC     C2 2818   1.980   6.091  14.088  0.8797 -0.3652  0.6625
  257UDC     C3 2819   1.907   6.007  13.988 -0.4771  0.6728  0.5114
  257UDC     C4 2820   1.774   6.053  13.942  0.8256  0.5109 -0.0175
  257UDC     C5 2821   1.756   6.194  13.880  0.5545 -0.1044 -0.0396
  257UDC     C6 2822   1.813   6.235  13.744 -0.0956  1.6747  0.0767
  257UDC     C7 2823   1.778   6.374  13.693  0.0985  0.1850  0.6860
  257UDC     C8 2824   1.773   6.406  13.540  0.4827 -0.2050  0.1532
  257UDC     C9 2825   1.914   6.421  13.476  0.7994 -0.2242 -0.4307
  257UDC    C10 2826   1.927   6.409  13.323  1.0275  0.2479  0.5042
  257UDC    C11 2827   2.075   6.391  13.277  0.5857  0.2484  1.0288
  258UDC     C1 2828   7.287  19.844  13.726  0.3818  0.1662 -0.3428
  258UDC     C2 2829   7.325  19.801  13.871  0.4711  0.2912 -0.0180
  258UDC     C3 2830   7.338  19.923  13.967  0.6736  0.4310  0.8923
  258UDC     C4 2831   7.412  20.046  13.901  1.0896  0.2907 -1.1428
  258UDC     C5 2832   7.414  20.187  13.970 -0.4262 -0.4866 -1.0078
  258UDC     C6 2833   7.499  20.183  14.102  0.8736 -1.4090 -0.0229
  258UDC     C7 2834   7.478  20.312  14.184  0.6440 -0.3363  0.3096
  258UDC     C8 2835   7.343  20.331  14.251 -0.2274 -0.4596 -0.0777
  258UDC     C9 2836   7.235  20.399  14.170  0.5060 -0.5064  0.6203
  258UDC    C10 2837   7.104  20.452  14.233 -0.4961 -0.2110  0.8843
  258UDC    C11 2838   7.083  20.399  14.378 -1.1710 -0.1853 -0.2956
  259UDC     C1 2839   9.172  10.244  13.364  0.6321  0.1512 -0.6460
  259UDC     C2 2840   9.111  10.107  13.367  0.3252  0.7560 -0.2975
  259UDC     C3 2841   9.055  10.060  13.230  1.4411 -0.3509  0.4117
  259UDC     C4 2842   8.971  10.176  13.178  0.1759  0.6611 -1.1928
  259UDC     C5 2843   8.879  10.139  13.055 -0.5291  1.1506 -0.5831
  259UDC     C6 2844   8.966  10.123  12.924  0.0714 -0.5924 -0.2896
  259UDC     C7 2845   8.891  10.057  12.813  0.0487  0.5638  0.1553
  259UDC     C8 2846   8.979   9.970  12.726 -0.3491 -0.2711  0.4397
  259UDC     C9 2847   8.895   9.844  12.701  1.7327  0.2078  0.3389
  259UDC    C10 2848   8.860   9.774  12.833  0.3283 -0.0801 -0.1054
  259UDC    C11 2849   8.975   9.717  12.909 -0.2643 -1.4823  0.3678
  260UDC     C1 2850  16.953   6.305   9.010  0.7781 -0.1851  0.9763
  260UDC     C2 2851  16.812   6.330   8.944 -0.0393 -1.0980 -0.7826
  260UDC     C3 2852  16.707   6.317   9.060  0.1141 -0.6994  0.3263
  260UDC     C4 2853  16.559   6.356   9.031  0.1636  1.1317 -0.2232
  260UDC     C5 2854  16.430   6.314   9.121 -0.1198  0.4023  0.1914
  260UDC     C6 2855  16.413   6.196   9.211  1.1268  0.5028 -0.5236
  260UDC     C7 2856  16.379   6.070   9.133  0.1210  2.0136  0.7952
  260UDC     C8 2857  16.329   5.952   9.223  0.5472 -0.0109  0.0459
  260UDC     C9 2858  16.315   5.823   9.136  0.0623  0.4963  0.1846
  260UDC    C10 2859  16.318   5.701   9.224  0.6857 -0.1612 -0.3788
  260UDC    C11 2860  16.445   5.630   9.222 -0.3907  0.0198 -0.0233
  261UDC     C1 2861   1.964  16.994  10.263  0.3322  0.2218  0.6376
  261UDC     C2 2862   2.010  17.049  10.397 -0.7726  0.8388  0.0544
  261UDC     C3 2863   1.896  17.086  10.477 -0.8091 -0.7235 -0.3664
  261UDC     C4 2864   1.844  16.991  10.600 -0.2668 -1.0457  0.1076
  261UDC     C5 2865   1.695  17.040  10.623  0.1308  1.1682 -0.7931
  261UDC     C6 2866   1.641  16.997  10.760 -0.2879 -0.8331  0.1505
  261UDC     C7 2867   1.495  17.033  10.769  0.3001 -0.0042 -0.6120
  261UDC     C8 2868   1.403  16.938  10.702  0.1517  0.1798 -0.1844
  261UDC     C9 2869   1.261  16.973  10.740  0.3647 -0.5325  1.5423
  261UDC    C10 2870   1.236  16.959  10.896 -0.4991 -0.1541  0.6928
  261UDC    C11 2871   1.138  16.859  10.937 -0.5086 -0.4551  0.2356
  262UDC     C1 2872  10.319   9.980  12.841 -0.5857 -0.6607 -0.2518
  262UDC     C2 2873  10.254   9.836  12.839 -0.5826  0.3113  0.0844
  262UDC     C3 2874  10.370   9.735  12.825 -0.0979  0.1752 -1.2278
  262UDC     C4 2875  10.411   9.708  12.681 -0.1145 -0.4586  1.0760
  262UDC     C5 2876  10.506   9.813  12.620 -0.0596 -0.3913 -0.4185
  262UDC     C6 2877  10.635   9.818  12.702  0.6017  0.3845 -0.4266
  262UDC     C7 2878  10.762   9.883  12.654  0.9022  0.3499  0.1773
  262UDC     C8 2879  10.798   9.863  12.510 -0.0039  0.0872 -0.4669
  262UDC     C9 2880  10.948   9.885  12.495 -0.0039 -0.6144  0.2754
  262UDC    C10 2881  11.031   9.805  12.597  0.0824 -0.7754 -0.0395
  262UDC    C11 2882  11.012   9.653  12.571 -0.2061 -1.2806  0.3276
  263UDC     C1 2883   3.064   8.623  13.106  0.6821 -0.2979 -0.7340
  263UDC     C2 2884   3.213   8.639  13.094  0.0950 -0.6461 -0.3964
  263UDC     C3 2885   3.249   8.789  13.075 -0.7126  0.4270 -1.5817
  263UDC     C4 2886   3.136   8.891  13.086  1.0713 -0.6280 -0.0579
  263UDC     C5 2887   3.185   9.039  13.089  0.7265  0.3303  0.2150
  263UDC     C6 2888   3.062   9.132  13.055  0.8181  0.3839 -0.2537
  263UDC     C7 2889   3.099   9.272  13.105 -0.4501 -0.1885 -1.2240
  263UDC     C8 2890   3.037   9.402  13.047 -1.2545  0.7845 -0.0562
  263UDC     C9 2891   2.887   9.410  13.065 -0.4145 -0.4783  0.2648
  263UDC    C10 2892   2.845   9.429  13.206 -1.2483 -0.2180 -0.9961
  263UDC    C11 2893   2.717   9.359  13.249  0.0588 -0.3944 -0.1017
  264UDC     C1 2894  12.554  10.289   0.032  0.6599  0.0948  0.4977
  264UDC     C2 2895  12.429  10.210  -0.024  0.4076  0.8057 -0.3310
  264UDC     C3 2896  12.336  10.149   0.084 -0.1086  0.8673 -0.1200
  264UDC     C4 2897  12.392  10.081   0.211  0.6201  0.1844 -0.9700
  264UDC     C5 2898  12.276  10.046   0.308  0.5607  1.0266  0.7727
  264UDC     C6 2899  12.175   9.939   0.252  0.5531 -0.7630 -0.0913
  264UDC     C7 2900  12.045   9.906   0.330  0.7344  0.5081 -0.4104
  264UDC     C8 2901  12.007   9.762   0.276  0.9011 -0.0397 -0.8696
  264UDC     C9 2902  12.125   9.668   0.289  0.0976  0.0602  0.2173
  264UDC    C10 2903  12.091   9.512   0.258  0.3381 -0.2259  0.3321
  264UDC    C11 2904  11.952   9.451   0.295 -0.0811 -0.4532 -0.2899
  265UDC     C1 2905  16.158  15.527  11.604  0.4457 -0.1964  0.2214
  265UDC     C2 2906  16.025  15.503  11.683 -0.8484  1.0277  1.9737
  265UDC     C3 2907  15.947  15.630  11.708 -0.2732 -0.3603 -1.1089
  265UDC     C4 2908  16.029  15.759  11.704 -1.0986  1.5071 -0.4094
  265UDC     C5 2909  15.957  15.885  11.688  0.2417  0.3500  0.3056
  265UDC     C6 2910  16.008  15.972  11.572  0.1273  0.5483 -0.2453
  265UDC     C7 2911  15.931  16.101  11.542 -0.5047  0.1739  0.5374
  265UDC     C8 2912  15.999  16.184  11.425 -0.6911  0.3408 -1.1031
  265UDC     C9 2913  15.937  16.321  11.394 -0.1351 -0.0298 -0.6368
  265UDC    C10 2914  16.003  16.365  11.262  0.6649 -1.1770  0.2406
  265UDC    C11 2915  15.908  16.465  11.188 -0.9212 -0.4631  0.6531
  266UDC     C1 2916  15.510   2.267   1.724 -0.2244  0.2671  0.7839
  266UDC     C2 2917  15.541   2.418   1.696 -0.8681 -0.3389  0.3728
  266UDC     C3 2918  15.596   2.483   1.822  0.0410  0.2124  0.3582
  266UDC     C4 2919  15.641   2.621   1.803 -0.6220 -0.1694  1.3008
  266UDC     C5 2920  15.743   2.663   1.911 -0.2431  0.2778  0.2011
  266UDC     C6 2921  15.771   2.816   1.904  0.3174  0.0882  0.0778
  266UDC     C7 2922  15.862   2.853   2.019  0.0900  0.2305 -0.2955
  266UDC     C8 2923  15.795   2.938   2.130 -0.3027 -0.0775 -0.7241
  266UDC     C9 2924  15.882   2.950   2.258 -0.4192  0.6445 -0.0699
  266UDC    C10 2925  16.028   2.970   2.229  0.7948 -1.3697 -0.2544
  266UDC    C11 2926  16.113   3.002   2.357 -0.0398  0.5499 -0.0406
  267UDC     C1 2927   6.950  14.412   1.476  0.4538  1.1020 -0.3158
  267UDC     C2 2928   7.095  14.386   1.490  0.2483  1.0708  0.1732
  267UDC     C3 2929   7.132  14.247   1.513 -0.6063  0.0385  0.1934
  267UDC     C4 2930   7.079  14.215   1.650 -0.0559  0.2598 -0.4603
  267UDC     C5 2931   7.141  14.085   1.706 -0.9079  0.9798 -0.2726
  267UDC     C6 2932   7.296  14.085   1.694  0.1305  0.2807 -0.3678
  267UDC     C7 2933   7.360  14.001   1.809 -0.1667  0.6244 -1.0393
  267UDC     C8 2934   7.504  14.016   1.805 -1.1896  0.1574 -0.4234
  267UDC     C9 2935   7.593  13.929   1.890 -0.0810 -0.7313  0.2456
  267UDC    C10 2936   7.578  13.949   2.037  1.1269 -0.4488 -0.2212
  267UDC    C11 2937   7.694  13.893   2.125  0.8888  0.0417  0.1745
  268UDC     C1 2938   8.875   9.418  19.175 -0.6952 -1.1575 -0.5767
  268UDC     C2 2939   9.012   9.354  19.136  1.8622 -0.7695 -0.1330
  268UDC     C3 2940   9.019   9.223  19.215 -1.3802 -1.0394 -0.6217
  268UDC     C4 2941   9.119   9.112  19.169  0.7021 -0.5933 -0.1005
  268UDC     C5 2942   9.087   9.010  19.061 -0.8511 -0.6215 -1.8766
  268UDC     C6 2943   9.209   8.922  19.050 -0.1005 -0.3227 -0.1131
  268UDC     C7 2944   9.217   8.812  18.944 -0.3212 -0.2544 -0.3503
  268UDC     C8 2945   9.085   8.735  18.948  0.2601 -0.4573 -0.2809
  268UDC     C9 2946   9.031   8.682  18.813  0.7173  0.3187  0.0198
  268UDC    C10 2947   8.901   8.614  18.793  0.8450 -0.7066  0.4861
  268UDC    C11 2948   8.864   8.564  18.658  0.0208  0.4074 -0.2394
  269UDC     C1 2949   2.392   1.369  15.049  0.4353 -0.9230  0.5224
  269UDC     C2 2950   2.509   1.279  15.022  0.6229 -0.3777  0.8185
  269UDC     C3 2951   2.619   1.320  14.922 -0.3036  0.7030  0.1980
  269UDC     C4 2952   2.651   1.195  14.839  0.7443 -1.4088  0.2583
  269UDC     C5 2953   2.738   1.086  14.914  0.4905 -0.0567 -0.1457
  269UDC     C6 2954   2.775   0.968  14.817 -0.6390  0.2985 -0.2768
  269UDC     C7 2955   2.881   0.855  14.840 -0.6885 -1.2647 -0.1794
  269UDC     C8 2956   2.894   0.774  14.719 -1.1705  1.3148 -0.4324
  269UDC     C9 2957   3.038   0.717  14.730  0.0565 -0.6579 -0.7924
  269UDC    C10 2958   3.088   0.612  14.628 -0.5713 -0.0087 -0.3697
  269UDC    C11 2959   3.079   0.676  14.483 -0.0675  0.1047 -1.1995
  270UDC     C1 2960  12.448   6.248   8.790 -0.7840  0.2901 -0.0625
  270UDC     C2 2961  12.534   6.298   8.671  1.2621 -0.2613 -0.4585
  270UDC     C3 2962  12.489   6.435   8.616 -0.5230 -1.0810  1.5666
  270UDC     C4 2963  12.353   6.452   8.544  0.7532 -0.3229 -0.1989
  270UDC     C5 2964  12.262   6.576   8.528 -0.5487 -1.0922 -1.3030
  270UDC     C6 2965  12.117   6.525   8.500 -0.8364 -0.0945  0.6478
  270UDC     C7 2966  12.017   6.541   8.618 -0.5324  0.8685  0.1631
  270UDC     C8 2967  12.012   6.688   8.663 -0.2591 -0.1755 -0.6036
  270UDC     C9 2968  11.947   6.679   8.800  1.1619 -1.2994  0.9581
  270UDC    C10 2969  11.930   6.817   8.854 -0.2207  0.3927  0.0144
  270UDC    C11 2970  11.850   6.811   8.985 -0.3624  0.0410  0.4489
  271UDC     C1 2971   3.585  12.475   2.748 -0.0662 -0.9815 -0.3567
  271UDC     C2 2972   3.611  12.332   2.803 -0.5229 -0.2862  0.6917
  271UDC     C3 2973   3.528  12.289   2.918  0.0094 -0.6950 -0.4450
  271UDC     C4 2974   3.581  12.141   2.951  1.3054  0.0359  0.0012
  271UDC     C5 2975   3.731  12.137   2.992  0.5032  0.2194 -0.2793
  271UDC     C6 2976   3.779  11.990   2.993 -0.3831 -0.7742  0.2025
  271UDC     C7 2977   3.839  11.949   3.132  0.9601  0.4812  1.0651
  271UDC     C8 2978   3.724  11.950   3.238 -0.7648  0.4132  0.5728
  271UDC     C9 2979   3.736  11.859   3.368 -1.7239 -0.0494  0.8047
  271UDC    C10 2980   3.814  11.918   3.480 -1.4993  0.3294 -0.0192
  271UDC    C11 2981   3.740  12.029   3.559  0.3773  0.0278  0.1681
  272UDC     C1 2982  14.004   1.585   7.953  0.4648  0.3754 -0.5074
  272UDC     C2 2983  14.076   1.665   7.847 -0.7524 -0.1218 -1.2164
  272UDC     C3 2984  14.021   1.637   7.705  0.4164 -0.6988 -0.1953
  272UDC     C4 2985  14.050   1.733   7.598 -0.5405 -0.1706  0.4959
  272UDC     C5 2986  13.974   1.861   7.599 -0.2408 -0.2092  0.4982
  272UDC     C6 2987  13.985   1.946   7.473  0.3699 -1.0946  0.3252
  272UDC     C7 2988  14.121   2.018   7.429  1.0564  0.3755 -1.4278
  272UDC     C8 2989  14.122   2.076   7.291 -0.3341  0.5021  0.7727
  272UDC     C9 2990  14.266   2.125   7.265 -0.6065 -0.0586  0.4230
  272UDC    C10 2991  14.272   2.165   7.121 -0.2601  0.4705  0.1064
  272UDC    C11 2992  14.218   2.303   7.122 -0.6057 -0.1025 -0.9310
  273UDC     C1 2993   2.758   3.099   6.167  1.2385 -0.2388 -0.3753
  273UDC     C2 2994   2.881   3.183   6.197  0.0561 -0.5572 -0.0187
  273UDC     C3 2995   2.973   3.133   6.307  0.5960  0.5254 -0.6471
  273UDC     C4 2996   3.109   3.213   6.294  0.9790 -0.0144  0.9508
  273UDC     C5 2997   3.161   3.225   6.146 -0.1581  0.0664 -0.0554
  273UDC     C6 2998   3.282   3.326   6.133 -1.0794 -0.0823  1.4762
  273UDC     C7 2999   3.364   3.337   6.002  0.0376  0.2363 -0.3464
  273UDC     C8 3000   3.510   3.384   6.021  1.7746  0.8117 -0.7586
  273UDC     C9 3001   3.542   3.521   6.084  0.8823 -0.4598  0.5981
  273UDC    C10 3002   3.678   3.582   6.054 -0.0114 -0.7775  0.3688
  273UDC    C11 3003   3.713   3.688   5.941 -0.1511 -0.4320  0.2382
  274UDC     C1 3004   6.893   0.823   8.877  0.1282  0.0632 -0.6772
  274UDC     C2 3005   6.848   0.967   8.877  0.7517 -0.7263  0.8900
  274UDC     C3 3006   6.713   0.977   8.811  0.9528 -0.8461  0.0857
  274UDC     C4 3007   6.593   0.899   8.871  0.1552  0.1087  0.5840
  274UDC     C5 3008   6.453   0.907   8.800 -1.1094  0.5638 -0.3002
  274UDC     C6 3009   6.453   1.004   8.681 -0.6613 -1.5038  0.5635
  274UDC     C7 3010   6.333   0.985   8.588 -0.5191 -0.4595  0.2027
  274UDC     C8 3011   6.213   1.076   8.619  0.2682 -1.0055  0.2625
  274UDC     C9 3012   6.113   1.005   8.718 -1.2766 -0.1347 -0.4496
  274UDC    C10 3013   5.968   1.049   8.684 -0.7936 -0.1458  0.0267
  274UDC    C11 3014   5.858   0.958   8.736 -0.0108 -0.7435  1.0096
  275UDC     C1 3015  19.863  18.663  19.593 -0.0081  0.1295  0.8810
  275UDC     C2 3016  19.794  18.523  19.621 -0.0023 -0.1214 -1.4531
  275UDC     C3 3017  19.811  18.481  19.776  0.3756  0.3016  0.8035
  275UDC     C4 3018  19.730  18.354  19.817  1.1339 -0.1862  0.6163
  275UDC     C5 3019  19.583  18.372  19.849 -0.3346 -0.6451  0.4196
  275UDC     C6 3020  19.496  18.249  19.886 -0.9236 -0.8320 -1.8937
  275UDC     C7 3021  19.346  18.269  19.911 -0.4651  0.8298 -0.1884
  275UDC     C8 3022  19.320  18.416  19.950 -0.2824 -0.1570 -1.3352
  275UDC     C9 3023  19.180  18.457  19.996  0.5688  0.3836  0.1202
  275UDC    C10 3024  19.067  18.442  19.888 -0.9801 -0.8680 -0.7311
  275UDC    C11 3025  18.933  18.504  19.925  0.7922 -0.7135 -0.7268
  276UDC     C1 3026  15.746  12.282   2.399  0.4738 -0.7265 -0.3619
  276UDC     C2 3027  15.866  12.260   2.306 -0.1311  0.8143  0.3758
  276UDC     C3 3028  15.983  12.214   2.391  0.0760  0.1660 -0.1675
  276UDC     C4 3029  16.117  12.261   2.329  0.0749 -0.9763 -0.4491
  276UDC     C5 3030  16.153  12.145   2.239  0.3399  0.1383 -0.2772
  276UDC     C6 3031  16.295  12.159   2.194 -0.3581 -0.1521  0.2136
  276UDC     C7 3032  16.338  12.035   2.119  0.1108  0.1670  0.7644
  276UDC     C8 3033  16.240  11.961   2.032 -0.4643  0.3029  0.1632
  276UDC     C9 3034  16.297  11.837   1.952  1.1858 -0.1511  0.2664
  276UDC    C10 3035  16.322  11.727   2.057 -0.5508  0.6110  1.0306
  276UDC    C11 3036  16.192  11.657   2.094  0.4198 -0.6364 -0.1539
  277UDC     C1 3037   6.173  15.269   9.727 -0.5481  0.4158 -0.7741
  277UDC     C2 3038   6.088  15.229   9.838  0.5985 -0.1852 -0.6170
  277UDC     C3 3039   6.108  15.095   9.910 -1.0152  0.0022 -0.3496
  277UDC     C4 3040   6.079  14.957   9.836  0.4856 -0.8962 -0.5192
  277UDC     C5 3041   5.925  14.944   9.830  0.2377 -0.3603 -0.0913
  277UDC     C6 3042   5.850  14.912   9.962 -0.5677 -0.4818  0.4866
  277UDC     C7 3043   5.881  14.773  10.034 -0.0976 -0.0517  0.1974
  277UDC     C8 3044   5.794  14.774  10.160  0.0060 -1.0358 -0.1547
  277UDC     C9 3045   5.762  14.657  10.253 -0.5104  0.0632 -0.9126
  277UDC    C10 3046   5.659  14.665  10.368 -0.6496 -0.7971  0.1670
  277UDC    C11 3047   5.722  14.735  10.491 -0.4991  0.1668  0.8857
  278UDC     C1 3048   1.419  11.793   9.887 -0.2516 -0.1204  1.3212
  278UDC     C2 3049   1.493  11.898   9.967 -0.0035 -0.6152 -0.6544
  278UDC     C3 3050   1.432  11.961  10.093 -0.0867  0.1255  0.0728
  278UDC     C4 3051   1.297  12.030  10.094 -0.0406  0.0169 -0.4265
  278UDC     C5 3052   1.247  12.065  10.230  0.1972 -0.5937 -1.4000
  278UDC     C6 3053   1.196  11.936  10.308  0.1369 -0.2517 -0.0455
  278UDC     C7 3054   1.146  11.951  10.457 -0.1832  0.9684  1.4379
  278UDC     C8 3055   1.282  11.972  10.530 -1.4868  0.5523  0.6580
  278UDC     C9 3056   1.260  11.976  10.687 -0.0354 -0.3492  0.6378
  278UDC    C10 3057   1.382  12.033  10.765  0.1236  0.5117  0.2874
  278UDC    C11 3058   1.525  12.021  10.701  0.5353 -0.4388 -1.6658
  279UDC     C1 3059   9.217  11.135   2.707  0.6488  0.1553 -0.2738
  279UDC     C2 3060   9.189  11.283   2.669  0.7717 -0.1735 -1.1255
  279UDC     C3 3061   9.221  11.318   2.528  0.5621 -0.3077  0.6869
  279UDC     C4 3062   9.283  11.457   2.500  0.4930 -0.4241 -0.9044
  279UDC     C5 3063   9.279  11.528   2.637 -0.1541 -0.7472  0.3265
  279UDC     C6 3064   9.352  11.667   2.643  0.9970 -0.7706 -0.0229
  279UDC     C7 3065   9.291  11.753   2.761  0.2529  0.1402 -0.9116
  279UDC     C8 3066   9.251  11.655   2.876 -1.1241  1.2466 -0.2158
  279UDC     C9 3067   9.158  11.716   2.985  0.1905  0.0839 -0.0050
  279UDC    C10 3068   9.233  11.784   3.115 -1.4672  0.1237  0.6988
  279UDC    C11 3069   9.350  11.871   3.075 -0.2836 -0.1394 -0.3944
  280UDC     C1 3070  11.833  12.428   1.612  0.1107 -0.0594 -0.6116
  280UDC     C2 3071  11.712  12.352   1.665  1.5353 -0.2042 -0.6523
  280UDC     C3 3072  11.586  12.339   1.583  0.0792  0.3588 -0.4771
  280UDC     C4 3073  11.507  12.461   1.549  0.1661 -0.1430 -0.1608
  280UDC     C5 3074  11.366  12.446   1.484 -0.3165  0.1227  0.5797
  280UDC     C6 3075  11.360  12.369   1.347 -0.9126  0.1733  0.4948
  280UDC     C7 3076  11.211  12.346   1.318 -0.3173 -0.4032 -0.9156
  280UDC     C8 3077  11.121  12.468   1.316  0.4942  0.4227 -0.2560
  280UDC     C9 3078  10.972  12.438   1.304 -0.4670  1.1837  0.0022
  280UDC    C10 3079  10.877  12.557   1.312 -0.2328 -0.0555 -0.6495
  280UDC    C11 3080  10.861  12.636   1.177 -0.5223  0.0924  0.1494
  281UDC     C1 3081  12.280  10.461  10.335 -0.7752 -0.3653  0.0375
  281UDC     C2 3082  12.232  10.365  10.439  0.6265  0.5028  0.2787
  281UDC     C3 3083  12.308  10.397  10.564  0.1404 -0.1950 -0.1048
  281UDC     C4 3084  12.316  10.546  10.595 -0.0589  0.1486  0.7055
  281UDC     C5 3085  12.435  10.574  10.691  0.2158 -0.0619  0.5932
  281UDC     C6 3086  12.429  10.594  10.848  0.5724 -0.3072 -0.5769
  281UDC     C7 3087  12.560  10.599  10.926  0.9306  0.1380  0.0390
  281UDC     C8 3088  12.520  10.605  11.070 -0.7605 -0.5639 -0.6298
  281UDC     C9 3089  12.635  10.660  11.154 -0.1860  0.5014  0.8835
  281UDC    C10 3090  12.593  10.675  11.307  0.3595  0.0286  0.6095
  281UDC    C11 3091  12.587  10.824  11.352  0.4349 -0.9198 -0.9995
  282UDC     C1 3092   2.733   3.991  10.493 -0.6259  0.0965 -0.5797
  282UDC     C2 3093   2.817   3.963  10.617  0.4774  0.2644  0.6249
  282UDC     C3 3094   2.873   4.091  10.657  0.9547 -0.0649  0.4396
  282UDC     C4 3095   2.933   4.091  10.791 -0.1804  0.1172 -0.3395
  282UDC     C5 3096   3.034   3.988  10.817 -0.4729 -0.7226  0.3008
  282UDC     C6 3097   3.109   3.982  10.952 -1.0634  0.6824  0.5096
  282UDC     C7 3098   3.023   3.945  11.071  0.2564 -0.1034 -0.0635
  282UDC     C8 3099   3.059   3.976  11.215  0.4698 -0.4632 -0.1003
  282UDC     C9 3100   2.969   3.916  11.324 -0.8351 -0.3595  0.4635
  282UDC    C10 3101   3.021   3.775  11.371  0.8589 -0.3216 -0.6397
  282UDC    C11 3102   2.929   3.716  11.480 -0.0040 -0.0305  0.1143
  283UDC     C1 3103  12.061  17.182   7.097 -0.6035 -0.8779  0.5146
  283UDC     C2 3104  11.991  17.261   7.210 -0.5007 -1.7398  0.1325
  283UDC     C3 3105  11.953  17.159   7.312  0.8322 -0.5838  0.2286
  283UDC     C4 3106  11.885  17.203   7.445 -0.2004  0.6409 -0.4085
  283UDC     C5 3107  11.901  17.099   7.563  0.1231  0.7553  0.7639
  283UDC     C6 3108  12.040  17.051   7.574 -0.4003  0.5295  0.0711
  283UDC     C7 3109  12.070  16.915   7.644  0.2497  0.6122  0.7685
  283UDC     C8 3110  12.220  16.883   7.668 -0.4888 -0.0872  0.0174
  283UDC     C9 3111  12.309  16.899   7.540 -0.9647 -1.3357 -0.6420
  283UDC    C10 3112  12.440  16.819   7.558  0.1165 -0.0351 -0.1118
  283UDC    C11 3113  12.433  16.674   7.611  0.1803  0.2914  0.4634
  284UDC     C1 3114  17.825  19.424  11.737 -0.8298 -0.6120  0.2319
  284UDC     C2 3115  17.913  19.445  11.866  0.2207  0.3636 -0.1300
  284UDC     C3 3116  17.883  19.345  11.985 -0.4772 -1.1405  0.8023
  284UDC     C4 3117  17.990  19.339  12.094  0.3005 -0.0134 -1.1327
  284UDC     C5 3118  17.977  19.208  12.173 -1.4594 -0.0886  0.0618
  284UDC     C6 3119  18.097  19.166  12.270  0.5163 -0.1723  0.3181
  284UDC     C7 3120  18.074  19.067  12.388  0.3057  0.0637  0.6810
  284UDC     C8 3121  18.035  18.931  12.328  0.0734  1.2173  0.3084
  284UDC     C9 3122  17.989  18.822  12.426  0.9700 -0.3303  0.0534
  284UDC    C10 3123  18.089  18.739  12.507  0.3324  0.1372 -0.8937
  284UDC    C11 3124  18.218  18.700  12.433  0.8105  0.6559 -0.2681
  285UDC     C1 3125   2.413  16.960  10.016 -0.6395  0.2990  1.2298
  285UDC     C2 3126   2.474  16.875   9.901 -0.4109  0.4763 -0.8224
  285UDC     C3 3127   2.367  16.850   9.789 -1.4798  0.8488 -1.2642
  285UDC     C4 3128   2.271  16.739   9.832 -0.2974 -0.5506 -0.5455
  285UDC     C5 3129   2.153  16.707   9.733  1.0171 -1.2800  0.2871
  285UDC     C6 3130   2.040  16.819   9.701  0.2466 -0.4114 -1.4868
  285UDC     C7 3131   1.947  16.763   9.592  0.0405 -1.2580 -0.4659
  285UDC     C8 3132   1.868  16.872   9.514  0.1720  0.3771 -1.3420
  285UDC     C9 3133   1.787  16.809   9.403 -0.5546  0.3404  0.2031
  285UDC    C10 3134   1.654  16.884   9.386 -0.0052 -0.2324 -0.7587
  285UDC    C11 3135   1.547  16.817   9.296  0.0031 -0.2346 -0.0977
  286UDC     C1 3136   5.972   8.691   7.363  0.3303 -0.0285 -0.5204
  286UDC     C2 3137   6.088   8.767   7.436  0.2901  0.4158 -0.1223
  286UDC     C3 3138   6.110   8.904   7.378  0.4046  0.3755 -0.3120
  286UDC     C4 3139   6.239   8.981   7.420  1.1785  0.5955 -0.0639
  286UDC     C5 3140   6.374   8.915   7.392  0.0350  0.1923  0.6293
  286UDC     C6 3141   6.505   8.995   7.418  0.0840 -0.4114  0.0572
  286UDC     C7 3142   6.509   9.135   7.348 -0.8860 -0.4113  0.3773
  286UDC     C8 3143   6.644   9.209   7.312  0.4667 -0.5177  0.1513
  286UDC     C9 3144   6.711   9.158   7.183 -0.6063  0.7131 -0.2970
  286UDC    C10 3145   6.625   9.152   7.056  0.1062  0.7316 -0.4647
  286UDC    C11 3146   6.687   9.068   6.937 -0.4445 -0.1808  0.1540
  287UDC     C1 3147  17.015  10.909  19.664  0.0978 -0.3408  0.7053
  287UDC     C2 3148  17.034  11.005  19.540 -0.3785  0.7122 -0.2895
  287UDC     C3 3149  17.180  11.055  19.537 -0.0125  1.0391 -0.8042
  287UDC     C4 3150  17.191  11.181  19.454  0.4633 -0.9434  0.2505
  287UDC     C5 3151  17.329  11.250  19.460 -0.6199 -0.1103 -0.5231
  287UDC     C6 3152  17.376  11.294  19.600 -0.1074  0.1915 -0.0677
  287UDC     C7 3153  17.535  11.307  19.621 -0.2369  0.5272 -0.0972
  287UDC     C8 3154  17.602  11.429  19.549  0.4472  1.6280  0.8721
  287UDC     C9 3155  17.529  11.565  19.564  0.2260 -0.2682  0.2995
  287UDC    C10 3156  17.593  11.686  19.499  0.0723 -0.6313 -0.5251
  287UDC    C11 3157  17.505  11.801  19.444  0.6503 -0.6382 -0.1504
  288UDC     C1 3158   6.900  11.249  10.867  0.5350 -0.1032  0.2563
  288UDC     C2 3159   6.768  11.294  10.806  0.0675 -0.8358  1.0585
  288UDC     C3 3160   6.689  11.318  10.935 -0.7539  0.0407  0.7469
  288UDC     C4 3161   6.740  11.431  11.022  0.4677 -0.4799  0.7281
  288UDC     C5 3162   6.638  11.450  11.134 -0.1060 -0.0630 -1.4142
  288UDC     C6 3163   6.501  11.504  11.102  0.9193  1.1805  0.2202
  288UDC     C7 3164   6.416  11.577  11.202  0.7813 -0.4729 -0.7857
  288UDC     C8 3165   6.273  11.609  11.163  0.2135  1.1853 -0.3870
  288UDC     C9 3166   6.291  11.685  11.028 -0.2468 -0.4301  0.1227
  288UDC    C10 3167   6.201  11.626  10.917  0.5424  0.3593 -0.0784
  288UDC    C11 3168   6.050  11.635  10.964  0.7468  0.7244 -0.9709
  289UDC     C1 3169  18.340  17.234   1.399 -0.2576 -0.0452  0.8343
  289UDC     C2 3170  18.421  17.353   1.335 -0.6120  0.5559 -0.0866
  289UDC     C3 3171  18.562  17.324   1.366  0.1113 -1.2076  0.1241
  289UDC     C4 3172  18.670  17.417   1.323  0.9149 -0.6118  0.6626
  289UDC     C5 3173  18.657  17.448   1.172 -1.0894  0.2804 -0.3290
  289UDC     C6 3174  18.699  17.336   1.067  0.3985  0.3792  0.0291
  289UDC     C7 3175  18.641  17.361   0.928 -0.3824  0.4873 -0.3618
  289UDC     C8 3176  18.716  17.470   0.862  0.8423  0.8424  0.2127
  289UDC     C9 3177  18.771  17.423   0.725 -0.2820 -0.4219 -0.3571
  289UDC    C10 3178  18.912  17.486   0.699  0.1260 -0.0720  1.3285
  289UDC    C11 3179  18.997  17.410   0.602  0.2150  1.0454 -0.2964
  290UDC     C1 3180  13.436   5.195  14.460 -0.4887 -0.3430  0.5605
  290UDC     C2 3181  13.376   5.286  14.343  0.2393  0.6468 -0.3767
  290UDC     C3 3182  13.313   5.408  14.410 -0.0706  0.3011 -0.5406
  290UDC     C4 3183  13.351   5.555  14.385  0.3027 -0.2163  0.7173
  290UDC     C5 3184  13.311   5.609  14.236 -0.5201 -0.8275 -1.0199
  290UDC     C6 3185  13.363   5.757  14.214 -0.3754 -1.0299  0.4404
  290UDC     C7 3186  13.347   5.850  14.338  0.5501  0.8981  0.6227
  290UDC     C8 3187  13.210   5.925  14.353 -0.2741  0.2115  0.8380
  290UDC     C9 3188  13.195   5.988  14.487  0.1552  0.2070 -1.3033
  290UDC    C10 3189  13.099   6.100  14.488  0.5806 -0.6448 -0.1129
  290UDC    C11 3190  13.108   6.200  14.371  0.4615  0.5633  0.3509
  291UDC     C1 3191   8.489  17.759  15.137  0.1493 -0.2744  0.2929
  291UDC     C2 3192   8.609  17.842  15.147 -0.0098 -0.1425  0.7064
  291UDC     C3 3193   8.611  17.991  15.096 -0.3308 -0.0795 -1.1278
  291UDC     C4 3194   8.526  18.089  15.182 -0.4994  1.2285 -0.5249
  291UDC     C5 3195   8.587  18.223  15.174  0.5870  0.8563  0.3932
  291UDC     C6 3196   8.495  18.331  15.236  0.3890  1.4393 -0.1674
  291UDC     C7 3197   8.562  18.470  15.258  0.0901  0.2266  0.8518
  291UDC     C8 3198   8.465  18.566  15.337 -1.4236  0.9726  0.2665
  291UDC     C9 3199   8.538  18.692  15.392  0.1670 -0.2877  0.5964
  291UDC    C10 3200   8.655  18.646  15.482  0.5564 -0.0171 -0.3943
  291UDC    C11 3201   8.717  18.758  15.565  0.3065 -0.0968 -0.3546
  292UDC     C1 3202   2.753   3.887   1.379 -1.0156  0.8235 -0.2179
  292UDC     C2 3203   2.705   3.856   1.522  0.5503  0.5437 -0.2221
  292UDC     C3 3204   2.644   3.968   1.606  1.2017  0.3382 -0.5748
  292UDC     C4 3205   2.612   3.927   1.752 -0.2763  0.2589 -0.8343
  292UDC     C5 3206   2.509   3.814   1.771 -0.2771  1.1576  1.8607
  292UDC     C6 3207   2.389   3.820   1.864  0.3281  0.1302 -0.2603
  292UDC     C7 3208   2.358   3.684   1.942  0.4821  0.1780  0.7690
  292UDC     C8 3209   2.210   3.665   1.983  0.8635 -0.0812  0.8793
  292UDC     C9 3210   2.156   3.768   2.090  0.5312  0.9709  0.6083
  292UDC    C10 3211   2.016   3.716   2.136  0.1285 -0.3171  0.1524
  292UDC    C11 3212   1.958   3.835   2.217 -0.5872  0.3639  0.7589
  293UDC     C1 3213   7.714   4.843  17.048 -0.9164  0.1585 -0.1320
  293UDC     C2 3214   7.603   4.868  16.947  0.5080  0.3980 -0.0749
  293UDC     C3 3215   7.655   4.899  16.801  0.2826  0.1266  0.9870
  293UDC     C4 3216   7.555   4.886  16.679  0.7761  0.1596 -0.2005
  293UDC     C5 3217   7.442   4.989  16.681 -0.1458  0.6482  0.4311
  293UDC     C6 3218   7.347   5.012  16.560  0.4903 -0.0024 -0.1369
  293UDC     C7 3219   7.299   4.894  16.478  0.2957  0.1796  0.8762
  293UDC     C8 3220   7.198   4.815  16.560  0.2332  0.8538  0.2787
  293UDC     C9 3221   7.097   4.902  16.635  1.4954  1.0563  0.0273
  293UDC    C10 3222   7.036   4.839  16.768 -0.7800 -1.5610 -0.4920
  293UDC    C11 3223   6.943   4.722  16.735 -0.5979  0.2722 -0.0994
  294UDC     C1 3224  18.334   0.271   3.833  0.9869 -0.0874  0.3886
  294UDC     C2 3225  18.399   0.212   3.958  0.3576  0.4116 -0.6284
  294UDC     C3 3226  18.370   0.295   4.085 -1.3176 -0.3263  0.3347
  294UDC     C4 3227  18.427   0.440   4.105  0.1406  0.9986 -0.6166
  294UDC     C5 3228  18.582   0.480   4.117  0.4762 -0.8734 -0.2179
  294UDC     C6 3229  18.621   0.625   4.069  0.4645 -0.3459  0.4593
  294UDC     C7 3230  18.528   0.726   4.134  0.0472  0.3159  0.3756
  294UDC     C8 3231  18.551   0.865   4.096 -0.1296  0.4666  0.2467
  294UDC     C9 3232  18.449   0.969   4.148  0.8528  0.2174 -0.7102
  294UDC    C10 3233  18.520   1.074   4.234  0.2322  0.5283  0.4117
  294UDC    C11 3234  18.444   1.176   4.319 -0.2432 -0.3789 -0.1134
  295UDC     C1 3235   2.072   4.072   6.552 -0.3869 -0.0908  0.4013
  295UDC     C2 3236   2.192   4.142   6.617  0.0371  1.4449  0.1025
  295UDC     C3 3237   2.304   4.040   6.665 -1.0912  0.5856 -0.9318
  295UDC     C4 3238   2.443   4.104   6.691 -0.4978 -0.4963  1.2090
  295UDC     C5 3239   2.536   4.005   6.752 -0.5702  0.5360 -0.0104
  295UDC     C6 3240   2.556   3.871   6.672  0.2848  0.4936 -0.8679
  295UDC     C7 3241   2.672   3.779   6.703 -0.7436  0.5748 -0.6352
  295UDC     C8 3242   2.645   3.679   6.816 -0.5762 -0.9227 -0.5557
  295UDC     C9 3243   2.766   3.628   6.898 -0.7546 -0.1188  0.0129
  295UDC    C10 3244   2.719   3.489   6.960 -0.2916 -0.1802  0.3714
  295UDC    C11 3245   2.816   3.419   7.049 -0.0197 -0.0177  0.1958
  296UDC     C1 3246  11.106  13.210   0.224 -0.2449 -1.2839 -0.2456
  296UDC     C2 3247  11.025  13.328   0.159  0.2506  0.4402 -0.9254
  296UDC     C3 3248  10.889  13.304   0.096  0.1048 -0.0389 -0.0773
  296UDC     C4 3249  10.814  13.421   0.027 -1.0575 -0.3135 -0.6665
  296UDC     C5 3250  10.717  13.398  -0.097 -0.5405  0.8614  0.9031
  296UDC     C6 3251  10.701  13.515  -0.202 -0.0277 -0.4405 -0.4137
  296UDC     C7 3252  10.815  13.514  -0.303  0.2320  0.1391 -0.7655
  296UDC     C8 3253  10.812  13.635  -0.399  1.4542  0.0597 -0.2337
  296UDC     C9 3254  10.719  13.639  -0.517 -0.3928  0.1471  0.5619
  296UDC    C10 3255  10.756  13.761  -0.601  0.9452 -0.2995 -0.9990
  296UDC    C11 3256  10.627  13.814  -0.656  0.0546 -0.1112 -0.0361
  297UDC     C1 3257   8.869  14.559  10.024 -0.2366 -0.3639  0.7154
  297UDC     C2 3258   8.945  14.585  10.148 -0.5604  0.1047 -0.5883
  297UDC     C3 3259   9.087  14.534  10.140 -0.0314 -0.6849  0.2423
  297UDC     C4 3260   9.134  14.497  10.282 -0.4632  0.8971 -0.6934
  297UDC     C5 3261   9.040  14.389  10.326 -1.2505  0.1825  0.8852
  297UDC     C6 3262   9.090  14.311  10.443 -0.1140  0.4751  0.3846
  297UDC     C7 3263   9.076  14.384  10.582 -0.1449 -0.8256 -1.1004
  297UDC     C8 3264   9.142  14.285  10.680  0.1871 -0.3803  0.0108
  297UDC     C9 3265   9.054  14.164  10.719 -0.7786  0.5104  0.3045
  297UDC    C10 3266   9.119  14.018  10.728  0.0791 -0.1299 -1.1928
  297UDC    C11 3267   9.201  13.975  10.609 -0.1252 -0.0448  0.3035
  298UDC     C1 3268  15.724  18.352   5.183  1.3958 -0.4089  0.5388
  298UDC     C2 3269  15.619  18.373   5.074 -0.2334 -0.4033  1.2146
  298UDC     C3 3270  15.581  18.509   5.009  0.4866  0.2305 -0.9971
  298UDC     C4 3271  15.444  18.474   4.945  0.5519 -0.3217 -0.2256
  298UDC     C5 3272  15.438  18.444   4.796  0.2093  1.3408  0.7545
  298UDC     C6 3273  15.310  18.369   4.742 -1.1994 -0.5362  0.1070
  298UDC     C7 3274  15.282  18.397   4.597  0.3341  0.2990 -0.2874
  298UDC     C8 3275  15.224  18.282   4.515 -0.6889 -0.1355  0.5315
  298UDC     C9 3276  15.312  18.164   4.460 -0.6732  0.3433  0.0413
  298UDC    C10 3277  15.400  18.212   4.341  0.0395  0.1729  0.0382
  298UDC    C11 3278  15.512  18.132   4.273 -0.1868 -0.8323 -0.0509
  299UDC     C1 3279  13.217  14.377   8.394  0.3136  0.7599 -0.1723
  299UDC     C2 3280  13.227  14.505   8.319 -0.3202  0.3956 -0.0727
  299UDC     C3 3281  13.277  14.621   8.401  0.4423 -0.2229 -0.0787
  299UDC     C4 3282  13.423  14.609   8.435  0.4227  0.2095 -0.6787
  299UDC     C5 3283  13.517  14.655   8.330  0.9683  0.0801 -0.3482
  299UDC     C6 3284  13.654  14.648   8.402  0.3217  0.6874  0.6085
  299UDC     C7 3285  13.743  14.717   8.298  0.6485  0.2237 -0.2891
  299UDC     C8 3286  13.729  14.872   8.292 -0.7697  0.1446  0.9661
  299UDC     C9 3287  13.868  14.942   8.286  0.6358  0.4700  0.2886
  299UDC    C10 3288  13.872  15.093   8.249 -0.6436  0.0241  0.1787
  299UDC    C11 3289  13.990  15.160   8.320 -0.3811  0.4227  0.0087
  300UDC     C1 3290   2.904  10.185  17.044 -0.1282 -0.9388 -0.2478
  300UDC     C2 3291   3.053  10.222  17.012 -0.6274 -0.4276  0.3943
  300UDC     C3 3292   3.092  10.355  17.074 -0.7241  0.1820 -0.1229
  300UDC     C4 3293   3.190  10.346  17.193 -0.9332 -0.4106 -0.0618
  300UDC     C5 3294   3.215  10.486  17.248  0.1906  1.3089  0.1032
  300UDC     C6 3295   3.338  10.491  17.343  0.2078 -0.8574  0.4756
  300UDC     C7 3296   3.463  10.414  17.288 -0.9405 -0.4268 -0.0952
  300UDC     C8 3297   3.575  10.495  17.213  1.2536 -0.1954  0.1968
  300UDC     C9 3298   3.692  10.415  17.154 -0.1115 -0.2644  0.6382
  300UDC    C10 3299   3.731  10.272  17.203 -0.1779  1.2257  0.1108
  300UDC    C11 3300   3.843  10.213  17.108  0.3351 -0.0915 -0.2339
  301UDC     C1 3301   1.734  15.162  17.228  0.0557 -0.0721 -0.3167
  301UDC     C2 3302   1.835  15.073  17.165 -0.5900  0.6832  0.1286
  301UDC     C3 3303   1.848  15.039  17.017 -0.8376 -0.4298 -0.6145
  301UDC     C4 3304   1.727  15.068  16.925 -0.1362  0.4052 -1.2020
  301UDC     C5 3305   1.768  15.096  16.785 -0.7009  0.3721  0.2141
  301UDC     C6 3306   1.887  15.192  16.796 -0.2347  0.9449 -0.8063
  301UDC     C7 3307   1.940  15.251  16.660 -0.4099  0.6804  0.6788
  301UDC     C8 3308   2.038  15.159  16.581 -0.7780  0.6571 -1.6224
  301UDC     C9 3309   2.095  15.214  16.454 -0.1288  0.9505  1.1892
  301UDC    C10 3310   2.123  15.362  16.487 -0.0727 -0.6149  0.4970
  301UDC    C11 3311   2.120  15.458  16.366 -0.8339 -0.3642 -0.6638
  302UDC     C1 3312  13.600   9.507  13.674 -0.2141  0.0181  0.2484
  302UDC     C2 3313  13.517   9.374  13.690 -0.6719  0.1606 -0.0773
  302UDC     C3 3314  13.428   9.361  13.562 -0.9974  1.5735 -0.3282
  302UDC     C4 3315  13.341   9.234  13.568  0.0688 -0.9165  0.1049
  302UDC     C5 3316  13.199   9.239  13.504  0.3400 -0.0997 -0.6710
  302UDC     C6 3317  13.153   9.096  13.471 -0.7343  1.2433  0.1164
  302UDC     C7 3318  13.012   9.050  13.457 -0.1637 -0.1724  0.1724
  302UDC     C8 3319  12.929   9.108  13.569 -0.0995  0.5347 -0.3442
  302UDC     C9 3320  12.776   9.112  13.522  0.0621 -0.0374 -1.0071
  302UDC    C10 3321  12.694   9.206  13.623  0.0316  0.2446  0.5051
  302UDC    C11 3322  12.568   9.148  13.683 -0.0294  0.2877 -0.1564
  303UDC     C1 3323   2.145  14.660   6.919 -0.6431  0.1031 -0.4082
  303UDC     C2 3324   2.145  14.801   6.851  0.3832 -0.5330  0.2819
  303UDC     C3 3325   2.240  14.902   6.915 -0.0020  0.1610  0.9908
  303UDC     C4 3326   2.259  15.018   6.817 -0.0923 -0.1959  0.5295
  303UDC     C5 3327   2.283  15.150   6.894 -0.6929  0.5390 -0.8016
  303UDC     C6 3328   2.351  15.246   6.802 -1.1930 -0.3288  0.1871
  303UDC     C7 3329   2.293  15.258   6.662 -0.9355  0.1439  0.7218
  303UDC     C8 3330   2.153  15.322   6.689  0.9269  0.5508 -0.2122
  303UDC     C9 3331   2.172  15.469   6.743  0.7962  0.6144  1.1443
  303UDC    C10 3332   2.036  15.526   6.797 -0.2683 -0.1530 -0.4424
  303UDC    C11 3333   2.047  15.574   6.947 -0.4230  0.1111 -0.3047
  304UDC     C1 3334   3.658  19.937   0.268  0.5967 -0.7574  0.3572
  304UDC     C2 3335   3.719  20.007   0.393  0.1804 -1.0427  0.6508
  304UDC     C3 3336   3.728  20.154   0.362 -0.0570  0.7183  0.4432
  304UDC     C4 3337   3.787  20.183   0.217 -0.8501  0.2991 -0.4369
  304UDC     C5 3338   3.803  20.334   0.186 -0.3562  1.1454 -0.0944
  304UDC     C6 3339   3.940  20.394   0.214 -1.4180 -0.0988  0.0493
  304UDC     C7 3340   3.927  20.550   0.209  0.1499  1.3155  0.1741
  304UDC     C8 3341   4.032  20.635   0.287 -0.6857 -0.3155  0.5438
  304UDC     C9 3342   3.979  20.767   0.335 -0.8177 -0.5098  0.2047
  304UDC    C10 3343   4.080  20.869   0.386 -0.5573  0.0411 -0.2301
  304UDC    C11 3344   4.022  20.994   0.444 -0.3258 -0.7649  0.2235
  305UDC     C1 3345  13.346   0.916   5.006 -0.3471  0.2328 -0.2792
  305UDC     C2 3346  13.442   0.966   5.117 -0.2703  0.9032 -0.1930
  305UDC     C3 3347  13.523   0.863   5.206  1.5873 -0.5312  0.2176
  305UDC     C4 3348  13.482   0.721   5.246 -0.6078  0.4762  0.0168
  305UDC     C5 3349  13.358   0.708   5.333 -0.3480  0.6252  0.4129
  305UDC     C6 3350  13.321   0.565   5.364 -1.2256 -0.9383  0.9117
  305UDC     C7 3351  13.186   0.562   5.440 -0.1135 -0.3187  1.3244
  305UDC     C8 3352  13.051   0.628   5.389  0.0037  0.1137  1.1337
  305UDC     C9 3353  12.997   0.601   5.241  0.9348 -0.7219 -0.4470
  305UDC    C10 3354  12.981   0.728   5.153  0.0086  0.5036 -0.4812
  305UDC    C11 3355  12.943   0.698   5.013 -0.1871 -0.2720 -0.1100
  306UDC     C1 3356   0.448  18.087   1.513 -0.0944 -0.3553 -0.0517
  306UDC     C2 3357   0.404  18.078   1.363 -0.1452  0.7734  0.3941
  306UDC     C3 3358   0.514  18.067   1.251  0.7541  0.0226  0.0538
  306UDC     C4 3359   0.623  17.961   1.287 -0.0616 -0.3527  0.8402
  306UDC     C5 3360   0.714  17.926   1.167  0.7664  0.5864  1.1993
  306UDC     C6 3361   0.750  17.778   1.185  0.8068  0.6351  0.6222
  306UDC     C7 3362   0.657  17.654   1.165  0.1743 -0.5484  0.5364
  306UDC     C8 3363   0.605  17.617   1.024  0.5067 -0.1100  0.9450
  306UDC     C9 3364   0.496  17.514   1.031 -0.3347 -0.7930  0.2924
  306UDC    C10 3365   0.376  17.567   1.110  0.9330  0.8617 -0.5366
  306UDC    C11 3366   0.323  17.707   1.093 -0.0332  0.4713 -0.2944
  307UDC     C1 3367  18.304  15.838   4.307  0.5041  0.6600  0.5625
  307UDC     C2 3368  18.282  15.894   4.165  0.9047  0.3045 -0.2205
  307UDC     C3 3369  18.414  15.942   4.111 -0.7565 -0.2302 -0.0446
  307UDC     C4 3370  18.435  16.037   3.989 -0.5107 -0.4123 -0.3838
  307UDC     C5 3371  18.340  16.158   3.979 -0.2580 -0.2198  0.3250
  307UDC     C6 3372  18.384  16.268   3.882  0.0449 -0.8054 -0.8024
  307UDC     C7 3373  18.320  16.403   3.935  0.4777  1.0769 -0.0457
  307UDC     C8 3374  18.353  16.524   3.843  0.0278  0.8039  1.1467
  307UDC     C9 3375  18.352  16.669   3.894  0.7522 -0.3192 -1.4671
  307UDC    C10 3376  18.437  16.675   4.023  0.8862  0.5323 -0.0475
  307UDC    C11 3377  18.436  16.817   4.083 -1.0129  0.2342 -0.4820
  308UDC     C1 3378   5.989   6.821   3.631  0.3269 -0.6106 -0.0459
  308UDC     C2 3379   5.954   6.943   3.727 -0.4506 -0.5168 -0.3906
  308UDC     C3 3380   5.801   6.958   3.717  0.4385  0.4948  0.3642
  308UDC     C4 3381   5.735   6.827   3.749  0.6792  0.9393 -1.1027
  308UDC     C5 3382   5.584   6.808   3.756 -0.5173  0.6699  0.0196
  308UDC     C6 3383   5.536   6.846   3.894 -0.7028  0.0250 -1.4023
  308UDC     C7 3384   5.586   6.759   4.012 -0.9368 -0.2194 -0.0352
  308UDC     C8 3385   5.526   6.805   4.147 -0.0288 -0.0586  0.2004
  308UDC     C9 3386   5.567   6.949   4.187  0.7872 -0.6487  0.9323
  308UDC    C10 3387   5.705   7.006   4.220  0.0967  0.5807  0.6306
  308UDC    C11 3388   5.719   7.160   4.204 -0.5507 -0.8707 -0.4275
  309UDC     C1 3389   3.039  12.042  16.625  0.8709  0.1048  1.3630
  309UDC     C2 3390   3.178  12.087  16.670 -0.1913  0.4504 -0.1659
  309UDC     C3 3391   3.164  12.208  16.762  0.2333 -0.1151 -0.2194
  309UDC     C4 3392   3.306  12.272  16.780 -0.5045  0.1541  0.2661
  309UDC     C5 3393   3.321  12.333  16.912 -0.6630  0.4620  0.0697
  309UDC     C6 3394   3.469  12.374  16.942 -0.2901  0.3737  0.6740
  309UDC     C7 3395   3.515  12.395  17.093 -0.2186  0.1703  0.0990
  309UDC     C8 3396   3.471  12.287  17.191 -0.3218 -0.1045  0.2798
  309UDC     C9 3397   3.504  12.307  17.338 -0.4060 -0.8093 -0.5976
  309UDC    C10 3398   3.463  12.191  17.437 -0.0815 -0.1344  1.1904
  309UDC    C11 3399   3.482  12.050  17.380 -0.4581 -0.6508  0.2168
  310UDC     C1 3400  10.615  12.172  10.437  1.1519  0.1399  0.2875
  310UDC     C2 3401  10.704  12.150  10.316 -2.0618  0.9220 -0.3839
  310UDC     C3 3402  10.637  12.156  10.184  0.2538  0.7613  0.8288
  310UDC     C4 3403  10.548  12.027  10.178  0.2107 -0.1151  0.6254
  310UDC     C5 3404  10.455  12.018  10.055  0.0080 -0.3822 -0.2548
  310UDC     C6 3405  10.362  11.895  10.069 -0.2825  0.0081  0.0757
  310UDC     C7 3406  10.256  11.868   9.958 -0.6062 -0.1300  0.8613
  310UDC     C8 3407  10.167  11.995   9.947  0.2520  0.2182 -0.6649
  310UDC     C9 3408  10.213  12.070   9.813 -0.6294 -0.5450  0.5992
  310UDC    C10 3409  10.108  12.131   9.717  0.2309 -0.5041  0.3085
  310UDC    C11 3410  10.192  12.220   9.617 -0.2469  0.9441  0.2447
  311UDC     C1 3411  17.113  10.293  11.796 -0.3692 -1.1302 -0.5507
  311UDC     C2 3412  17.225  10.390  11.760  0.2773  0.2207  1.1197
  311UDC     C3 3413  17.285  10.361  11.616 -0.5519  0.3152 -0.0943
  311UDC     C4 3414  17.410  10.434  11.574  0.3349 -0.4049  0.3015
  311UDC     C5 3415  17.384  10.561  11.483 -1.2720 -0.1048 -0.8456
  311UDC     C6 3416  17.264  10.543  11.394  0.8472 -0.6266  1.5099
  311UDC     C7 3417  17.275  10.662  11.293 -0.1132 -0.1026  0.6529
  311UDC     C8 3418  17.182  10.632  11.166 -0.5873 -0.0873 -0.9407
  311UDC     C9 3419  17.030  10.666  11.174  0.1409 -0.6270  0.2827
  311UDC    C10 3420  16.932  10.593  11.075  0.5999  0.1216  0.8442
  311UDC    C11 3421  16.953  10.437  11.098  0.0621  0.1430 -0.4043
  312UDC     C1 3422  15.920   5.255   6.187  0.5466 -0.5289 -0.1159
  312UDC     C2 3423  15.810   5.222   6.293  0.7245  0.5007  0.3189
  312UDC     C3 3424  15.842   5.113   6.398 -0.0993  0.1956  1.5582
  312UDC     C4 3425  15.849   4.973   6.332  0.7074 -0.3026 -1.8390
  312UDC     C5 3426  15.713   4.913   6.310 -1.0265  0.1070 -0.6839
  312UDC     C6 3427  15.709   4.824   6.186 -0.3265  1.1822 -0.7865
  312UDC     C7 3428  15.808   4.715   6.210 -0.7745  0.1571 -0.6124
  312UDC     C8 3429  15.867   4.678   6.074  0.8533  0.5406 -1.1389
  312UDC     C9 3430  15.941   4.543   6.100  0.0465  0.3111 -0.6358
  312UDC    C10 3431  16.033   4.516   5.973  0.6633  0.6933 -1.1380
  312UDC    C11 3432  16.104   4.380   5.979 -0.4727 -0.9518 -0.1354
  313UDC     C1 3433   0.027   2.762   4.472  0.3876  0.4597 -0.8040
  313UDC     C2 3434  -0.125   2.754   4.417 -0.4197 -0.1691 -0.4007
  313UDC     C3 3435  -0.122   2.712   4.272  0.9855  1.0446  0.0927
  313UDC     C4 3436  -0.262   2.662   4.211  0.1894 -1.0584 -0.5491
  313UDC     C5 3437  -0.268   2.530   4.134  0.5856 -0.6909 -0.1312
  313UDC     C6 3438  -0.406   2.495   4.065  0.7357 -1.2125  0.2201
  313UDC     C7 3439  -0.403   2.358   3.999  0.2559 -1.3187 -0.0362
  313UDC     C8 3440  -0.307   2.329   3.887  0.1536  0.0872  0.3868
  313UDC     C9 3441  -0.356   2.367   3.743  0.8370 -0.3620  0.3655
  313UDC    C10 3442  -0.494   2.318   3.699  0.6481  0.3583  0.3787
  313UDC    C11 3443  -0.570   2.386   3.576  0.0314  0.1368  0.9713
  314UDC     C1 3444  17.396  14.141   9.782  0.3441 -0.3463 -0.4507
  314UDC     C2 3445  17.343  14.171   9.640  0.4925 -0.5065 -0.1004
  314UDC     C3 3446  17.204  14.228   9.667 -0.3015  0.8180 -0.2738
  314UDC     C4 3447  17.105  14.227   9.558  0.5098  0.1377 -0.1166
  314UDC     C5 3448  17.056  14.098   9.496 -0.0232  0.1611  0.4010
  314UDC     C6 3449  16.910  14.073   9.494  0.6652 -0.4186  0.8336
  314UDC     C7 3450  16.812  14.179   9.442 -0.2414 -0.8069 -0.8077
  314UDC     C8 3451  16.677  14.117   9.384  0.6356 -0.2538 -0.3039
  314UDC     C9 3452  16.576  14.229   9.334 -0.1596 -0.1130 -0.3606
  314UDC    C10 3453  16.446  14.172   9.284  0.5401 -1.0277 -0.2216
  314UDC    C11 3454  16.358  14.286   9.235  1.0849  0.6808 -0.4922
  315UDC     C1 3455  16.407  17.834   1.890 -0.8569  0.1858  0.1168
  315UDC     C2 3456  16.399  17.916   1.757 -0.0820  0.4120  0.0661
  315UDC     C3 3457  16.515  17.919   1.664  0.1073  1.0508 -0.2375
  315UDC     C4 3458  16.521  17.994   1.529 -0.0088  0.6758  0.3635
  315UDC     C5 3459  16.611  17.913   1.443  0.0652  0.8349  0.1070
  315UDC     C6 3460  16.627  17.945   1.295  0.7112  0.9109  0.5057
  315UDC     C7 3461  16.757  17.886   1.229  0.8088 -0.0641 -1.5051
  315UDC     C8 3462  16.778  17.926   1.081  1.2321 -0.5002 -0.4527
  315UDC     C9 3463  16.919  17.985   1.033 -0.2705  0.1464 -0.7761
  315UDC    C10 3464  16.950  18.134   1.032  0.8608  0.6677  0.8382
  315UDC    C11 3465  16.961  18.203   1.164 -1.1669  0.8850 -0.9424
  316UDC     C1 3466   5.753  12.242   1.925  0.3339 -0.3847 -0.5820
  316UDC     C2 3467   5.866  12.336   1.911 -0.5823 -0.2052 -0.6334
  316UDC     C3 3468   5.995  12.265   1.868  0.3808 -1.8739  0.0833
  316UDC     C4 3469   6.106  12.369   1.851  0.0026  0.7225 -0.3447
  316UDC     C5 3470   6.253  12.322   1.845  0.6472 -0.8818 -0.0598
  316UDC     C6 3471   6.351  12.443   1.826 -0.7762  0.0994  0.1846
  316UDC     C7 3472   6.357  12.554   1.934  0.1757 -0.2975 -0.8105
  316UDC     C8 3473   6.401  12.694   1.890  0.7882  0.1343  0.3752
  316UDC     C9 3474   6.548  12.739   1.844  0.4610 -0.4395 -0.5326
  316UDC    C10 3475   6.640  12.734   1.973  0.4947 -0.1419  0.5558
  316UDC    C11 3476   6.611  12.841   2.083  0.1326 -0.1898  1.2474
  317UDC     C1 3477  11.437   0.522   0.074  1.4900 -0.2577 -0.6086
  317UDC     C2 3478  11.343   0.407   0.137  0.4647  0.0562 -0.3896
  317UDC     C3 3479  11.261   0.316   0.044 -0.0028 -0.5608  0.1123
  317UDC     C4 3480  11.174   0.221   0.119  1.4021  0.1800 -0.4143
  317UDC     C5 3481  11.041   0.283   0.172 -0.6486 -0.1560 -0.8881
  317UDC     C6 3482  10.971   0.178   0.262  0.6140  0.0574 -0.4343
  317UDC     C7 3483  11.006   0.035   0.223  1.6558  1.0925 -0.8072
  317UDC     C8 3484  10.943  -0.075   0.310  0.3378 -0.0896 -0.0195
  317UDC     C9 3485  11.008  -0.106   0.450 -0.1208 -0.9188  0.1606
  317UDC    C10 3486  10.933  -0.218   0.524 -0.0765  0.9459 -0.3865
  317UDC    C11 3487  10.950  -0.201   0.678  0.3921  0.5082 -0.2305
  318UDC     C1 3488   5.396   2.751  18.255 -1.2692 -0.1038 -0.0380
  318UDC     C2 3489   5.443   2.824  18.384  0.4044  0.0200 -0.2614
  318UDC     C3 3490   5.344   2.930  18.417  0.0818 -0.3411 -0.1473
  318UDC     C4 3491   5.394   3.066  18.369  0.1003 -0.0975 -0.4439
  318UDC     C5 3492   5.527   3.089  18.451  0.0658  0.1633  0.2236
  318UDC     C6 3493   5.626   3.162  18.362 -0.5216 -0.0834  0.5995
  318UDC     C7 3494   5.709   3.064  18.282 -0.6388 -1.3963  0.4825
  318UDC     C8 3495   5.815   3.125  18.179 -0.1247 -1.0311 -0.2084
  318UDC     C9 3496   5.883   3.026  18.084 -0.0324 -0.5625  0.2238
  318UDC    C10 3497   5.790   3.006  17.961  0.2204  0.1164  0.6161
  318UDC    C11 3498   5.761   2.861  17.920  0.0621  0.1612 -0.5129
  319UDC     C1 3499  11.467  14.458  14.010  0.8345  0.2503 -1.0337
  319UDC     C2 3500  11.447  14.405  13.863 -1.6455 -0.4452 -0.5453
  319UDC     C3 3501  11.565  14.313  13.836  1.0016 -0.1009 -0.0253
  319UDC     C4 3502  11.516  14.188  13.770 -0.0696  0.2309 -0.3831
  319UDC     C5 3503  11.623  14.085  13.732  0.2053 -0.8517  0.3083
  319UDC     C6 3504  11.691  14.047  13.859 -0.3382  1.3659 -0.0922
  319UDC     C7 3505  11.811  13.953  13.838  0.8338 -1.0531 -0.6058
  319UDC     C8 3506  11.911  13.946  13.961 -0.4113  0.5511  0.5394
  319UDC     C9 3507  12.001  13.823  13.933  0.2500  0.4541 -0.0253
  319UDC    C10 3508  12.039  13.764  14.074 -1.6901 -0.5815 -0.5351
  319UDC    C11 3509  12.129  13.638  14.089  0.2591 -0.4390 -0.6845
  320UDC     C1 3510  14.794  14.654   3.648  0.2477 -0.3204 -0.2560
  320UDC     C2 3511  14.653  14.695   3.601  0.1018  0.3576  1.1123
  320UDC     C3 3512  14.653  14.686   3.447 -0.0655 -0.6216  0.3944
  320UDC     C4 3513  14.524  14.721   3.383 -0.2975 -0.4811  0.3940
  320UDC     C5 3514  14.450  14.856   3.423  0.3044  0.1360 -0.4497
  320UDC     C6 3515  14.299  14.834   3.435  0.3067 -0.1121  0.1673
  320UDC     C7 3516  14.233  14.783   3.304 -0.6816  0.5191 -0.4118
  320UDC     C8 3517  14.080  14.811   3.298 -0.1975 -0.6615 -0.5018
  320UDC     C9 3518  14.010  14.792   3.159  0.2549 -1.3628 -0.1991
  320UDC    C10 3519  14.101  14.697   3.072 -0.7757 -0.2376  0.5513
  320UDC    C11 3520  14.064  14.686   2.921  0.3235 -1.0086 -0.1614
  321UDC     C1 3521   6.331  19.093  14.042  0.1138  0.2249  0.4050
  321UDC     C2 3522   6.262  19.227  14.020  0.3688 -0.2769  0.2425
  321UDC     C3 3523   6.118  19.222  14.071 -0.0586 -0.7125  0.2234
  321UDC     C4 3524   6.101  19.247  14.226 -0.8226  0.5266 -0.4602
  321UDC     C5 3525   5.972  19.189  14.280 -0.9887  0.0075  1.1307
  321UDC     C6 3526   5.901  19.280  14.378  0.2368  0.3124  0.5160
  321UDC     C7 3527   5.998  19.301  14.495  0.1787 -0.0280 -0.1214
  321UDC     C8 3528   5.928  19.356  14.623  1.2822  0.6240  0.9809
  321UDC     C9 3529   5.991  19.480  14.668 -0.4143  0.7644 -0.1032
  321UDC    C10 3530   5.887  19.568  14.746 -0.6038 -0.6626 -0.1961
  321UDC    C11 3531   5.760  19.603  14.660  0.0864 -0.9342 -0.5232
  322UDC     C1 3532   3.007   6.530   2.228  1.7918  0.6246 -0.5878
  322UDC     C2 3533   3.066   6.426   2.121  0.3328 -0.0271  0.4442
  322UDC     C3 3534   3.201   6.439   2.054  0.4379  0.3542 -1.1351
  322UDC     C4 3535   3.326   6.374   2.118  1.1833  0.1887  0.6201
  322UDC     C5 3536   3.441   6.376   2.007 -0.5578 -0.3743  0.0089
  322UDC     C6 3537   3.386   6.298   1.888 -0.6297  0.7677  0.2013
  322UDC     C7 3538   3.495   6.248   1.781  0.1239  0.0541 -1.2865
  322UDC     C8 3539   3.431   6.206   1.642  0.2972 -0.5345  0.4090
  322UDC     C9 3540   3.528   6.130   1.552  0.4373  0.8693  0.2233
  322UDC    C10 3541   3.455   6.066   1.425 -0.9174  0.8220 -0.2001
  322UDC    C11 3542   3.458   6.175   1.313 -0.3044 -0.2886 -0.1061
  323UDC     C1 3543  18.975  17.029  15.855  0.6455 -1.4264 -0.2015
  323UDC     C2 3544  19.126  17.004  15.824 -0.4627  0.0636 -0.1470
  323UDC     C3 3545  19.117  16.893  15.718  0.6509 -0.2593 -0.0245
  323UDC     C4 3546  19.080  16.943  15.576 -1.0285 -0.2680 -0.5152
  323UDC     C5 3547  19.145  16.847  15.474 -0.2216 -0.2885  0.5764
  323UDC     C6 3548  19.112  16.874  15.322 -0.6573 -0.2481 -0.1005
  323UDC     C7 3549  19.046  17.016  15.283 -0.3336 -0.6619  0.7739
  323UDC     C8 3550  19.004  17.038  15.130  1.4281 -0.7165 -0.2998
  323UDC     C9 3551  18.865  17.097  15.087 -0.8433 -0.2481 -0.3552
  323UDC    C10 3552  18.755  17.009  15.161  0.2911 -0.5732  0.4441
  323UDC    C11 3553  18.602  17.051  15.144 -0.3411  0.4426 -0.5764
  324UDC     C1 3554  17.794  14.155  10.866 -0.0479 -1.2703 -0.5372
  324UDC     C2 3555  17.874  14.091  10.752 -0.3353  0.0283 -1.3425
  324UDC     C3 3556  17.772  14.069  10.639  1.0423  0.7847  0.6476
  324UDC     C4 3557  17.655  13.970  10.672  0.9443  0.4754  0.2917
  324UDC     C5 3558  17.568  13.934  10.544  0.7218 -0.3316  0.0598
  324UDC     C6 3559  17.637  13.827  10.469 -0.8220 -1.3342  0.9600
  324UDC     C7 3560  17.550  13.790  10.345 -1.1881 -0.0395 -0.3254
  324UDC     C8 3561  17.412  13.756  10.390  0.0220  1.1822 -0.7619
  324UDC     C9 3562  17.390  13.660  10.511 -0.7311  0.1519 -0.2292
  324UDC    C10 3563  17.256  13.604  10.550  0.3346  0.2435 -0.7996
  324UDC    C11 3564  17.186  13.516  10.449 -0.0818  0.2365 -0.6212
  325UDC     C1 3565  10.021   9.177   8.687 -0.3390  0.1188 -0.6043
  325UDC     C2 3566   9.946   9.165   8.559  0.1573 -0.1956 -1.1567
  325UDC     C3 3567  10.028   9.158   8.433 -0.2181  0.3875  0.3876
  325UDC     C4 3568   9.956   9.118   8.301 -0.2835  0.5241  0.8747
  325UDC     C5 3569   9.894   8.974   8.303 -0.4351  0.3635  0.1394
  325UDC     C6 3570   9.841   8.918   8.167  0.0223 -0.0990 -0.8053
  325UDC     C7 3571   9.686   8.951   8.160 -0.7388  0.6198 -0.2799
  325UDC     C8 3572   9.610   8.845   8.076  0.0450  0.2530  0.7435
  325UDC     C9 3573   9.466   8.875   8.035 -0.2206 -0.3075  0.1592
  325UDC    C10 3574   9.431   8.814   7.895  0.3199 -0.6710 -0.2953
  325UDC    C11 3575   9.515   8.870   7.783 -0.7068 -0.2046 -0.4086
  326UDC     C1 3576  12.440  15.507  17.161 -0.0536  0.6499  0.2179
  326UDC     C2 3577  12.339  15.406  17.113 -0.2434  0.4727 -0.4939
  326UDC     C3 3578  12.320  15.364  16.960  0.7262 -0.3451 -0.4206
  326UDC     C4 3579  12.428  15.254  16.923 -0.0196 -0.5007  0.0605
  326UDC     C5 3580  12.410  15.146  16.819  0.8475 -0.4387 -0.4619
  326UDC     C6 3581  12.431  15.209  16.687  0.2615 -0.6768  1.4257
  326UDC     C7 3582  12.319  15.287  16.603  0.1951 -0.1550 -0.4690
  326UDC     C8 3583  12.324  15.442  16.596 -0.5829 -0.4401  0.6435
  326UDC     C9 3584  12.260  15.481  16.459  0.5459 -0.6444 -1.0978
  326UDC    C10 3585  12.113  15.436  16.436  0.0980  0.2588 -0.0938
  326UDC    C11 3586  12.032  15.530  16.348 -0.0548 -1.3034  0.5353
  327UDC     C1 3587   3.400   8.472  17.487 -0.6932  0.3958  0.2952
  327UDC     C2 3588   3.297   8.581  17.468  0.3206 -0.0914 -0.0727
  327UDC     C3 3589   3.345   8.730  17.453  1.2143  0.8658 -0.2832
  327UDC     C4 3590   3.239   8.819  17.385  0.5028  1.5030 -0.8810
  327UDC     C5 3591   3.176   8.745  17.262 -1.2706  0.6937  1.0725
  327UDC     C6 3592   3.041   8.777  17.182 -0.4096 -0.3684  0.6321
  327UDC     C7 3593   2.947   8.674  17.114 -0.7068  0.0979 -0.2837
  327UDC     C8 3594   2.866   8.602  17.218  1.3989  0.4255 -0.0351
  327UDC     C9 3595   2.783   8.492  17.144 -0.2939 -0.0276 -0.5478
  327UDC    C10 3596   2.693   8.413  17.239 -1.4004  0.1361 -1.3496
  327UDC    C11 3597   2.741   8.334  17.367  0.5651  0.3641 -0.0257
  328UDC     C1 3598  15.282   4.835  18.686  0.4791  0.0619  0.3652
  328UDC     C2 3599  15.314   4.978  18.723  0.7933 -1.0035  0.3639
  328UDC     C3 3600  15.389   5.050  18.609 -0.2197 -1.1152  0.2668
  328UDC     C4 3601  15.433   5.194  18.639  0.7397  0.9161 -0.2775
  328UDC     C5 3602  15.307   5.285  18.661 -0.1693  0.0061 -0.7597
  328UDC     C6 3603  15.253   5.353  18.546 -0.4351  0.7246  1.3183
  328UDC     C7 3604  15.300   5.499  18.554 -1.2598  0.0734  1.1438
  328UDC     C8 3605  15.236   5.574  18.672  0.3023  0.7949  0.1644
  328UDC     C9 3606  15.312   5.699  18.718  0.0736 -0.1682 -0.0168
  328UDC    C10 3607  15.439   5.677  18.803 -0.7150  0.6992 -0.4992
  328UDC    C11 3608  15.445   5.630  18.951  0.2801 -0.0810  0.6793
  329UDC     C1 3609   6.710  11.383   2.851  0.5173 -0.5005  1.4314
  329UDC     C2 3610   6.668  11.244   2.794 -0.7735  0.6508 -0.7932
  329UDC     C3 3611   6.534  11.171   2.792  0.4875 -0.3653  1.0666
  329UDC     C4 3612   6.449  11.228   2.667  0.3602 -0.0054 -0.2703
  329UDC     C5 3613   6.291  11.242   2.677  0.4939  0.6975 -0.0252
  329UDC     C6 3614   6.214  11.275   2.548  0.0427 -1.5252 -1.1382
  329UDC     C7 3615   6.065  11.311   2.558 -0.0933 -0.0488 -0.1276
  329UDC     C8 3616   6.006  11.420   2.466  0.4812  0.2002 -0.0627
  329UDC     C9 3617   6.033  11.415   2.312 -0.2445  0.2048 -0.3977
  329UDC    C10 3618   6.021  11.555   2.247 -0.1595 -0.1678 -1.1733
  329UDC    C11 3619   6.089  11.561   2.110 -0.2415  1.5010  0.5287
  330UDC     C1 3620   3.116  15.620  14.347 -1.1314  0.6501  0.1332
  330UDC     C2 3621   3.199  15.746  14.355 -0.5005 -0.5937  0.8599
  330UDC     C3 3622   3.220  15.787  14.208  0.1123  0.1356  1.1546
  330UDC     C4 3623   3.342  15.747  14.136  0.7452  0.2573  0.8158
  330UDC     C5 3624   3.402  15.854  14.039  0.3729 -0.2687 -0.2986
  330UDC     C6 3625   3.502  15.764  13.949  0.8441 -0.5124 -0.8256
  330UDC     C7 3626   3.567  15.662  14.046  0.3904 -0.3988  0.9916
  330UDC     C8 3627   3.682  15.585  13.974 -0.3625 -1.0284 -0.5978
  330UDC     C9 3628   3.743  15.485  14.075 -0.3828 -0.9758  1.5190
  330UDC    C10 3629   3.862  15.404  14.017 -0.4657  0.9440 -0.8516
  330UDC    C11 3630   3.841  15.337  13.884 -0.0204 -1.1331 -0.7594
  331UDC     C1 3631   5.114  13.866   1.601 -1.0648 -0.5381 -0.1627
  331UDC     C2 3632   4.995  13.783   1.653  0.2138  0.3950  0.0606
  331UDC     C3 3633   4.885  13.776   1.546 -0.3704  1.1237 -0.8330
  331UDC     C4 3634   4.758  13.862   1.583 -0.3122 -0.6366 -0.1184
  331UDC     C5 3635   4.673  13.915   1.471 -0.7536  0.7303  0.6039
  331UDC     C6 3636   4.590  14.034   1.507 -0.0864  0.8692  0.1125
  331UDC     C7 3637   4.511  14.064   1.382 -0.8094  0.7232  0.0407
  331UDC     C8 3638   4.415  14.173   1.390 -0.6596  0.0874 -0.9475
  331UDC     C9 3639   4.336  14.221   1.273  0.3691 -0.3050  1.5145
  331UDC    C10 3640   4.242  14.339   1.301  0.6026 -0.5405 -0.9114
  331UDC    C11 3641   4.162  14.397   1.180 -0.6123 -0.3777 -0.3750
  332UDC     C1 3642   3.967   9.702  11.335  0.1647  0.1642  1.4732
  332UDC     C2 3643   4.038   9.816  11.411 -0.2146  0.0617 -0.1574
  332UDC     C3 3644   4.154   9.890  11.348  0.2334 -2.0313  0.6391
  332UDC     C4 3645   4.239   9.788  11.277 -0.7546  0.1786 -0.6446
  332UDC     C5 3646   4.330   9.699  11.364  0.6696  0.1972  0.5674
  332UDC     C6 3647   4.399   9.593  11.269  0.2856 -0.4283 -0.5222
  332UDC     C7 3648   4.488   9.510  11.372  0.1182 -0.7887 -1.8730
  332UDC     C8 3649   4.558   9.383  11.313 -0.5362 -0.1087 -0.4952
  332UDC     C9 3650   4.681   9.444  11.244 -0.3766  0.8741 -0.0518
  332UDC    C10 3651   4.784   9.344  11.190 -0.2411  0.3319  0.8243
  332UDC    C11 3652   4.908   9.386  11.104 -0.1824  0.4982  0.0856
  333UDC     C1 3653   9.273   1.269   4.822 -0.2849  0.2364 -0.7677
  333UDC     C2 3654   9.235   1.288   4.676  0.2298 -0.0515  1.0155
  333UDC     C3 3655   9.146   1.181   4.622  0.3026  0.3040  0.2705
  333UDC     C4 3656   9.073   1.235   4.493 -0.1791  0.5015  0.1474
  333UDC     C5 3657   8.951   1.313   4.516 -0.3796 -1.2492  0.4132
  333UDC     C6 3658   8.852   1.321   4.396  0.3651 -1.0922  0.1445
  333UDC     C7 3659   8.719   1.371   4.459 -0.7385 -0.3394  0.3653
  333UDC     C8 3660   8.594   1.329   4.387  0.5508  0.1252 -0.0265
  333UDC     C9 3661   8.473   1.369   4.481 -0.5037 -0.4205  0.8857
  333UDC    C10 3662   8.337   1.342   4.409 -1.0232 -0.4624 -1.1405
  333UDC    C11 3663   8.219   1.429   4.450  0.0309 -1.0147  1.1428
  334UDC     C1 3664   5.325   2.467  10.368  0.8419  0.1250  0.8698
  334UDC     C2 3665   5.379   2.370  10.476  0.4160 -0.2772  0.5223
  334UDC     C3 3666   5.472   2.261  10.433  0.4179 -0.5508 -0.0249
  334UDC     C4 3667   5.417   2.157  10.336 -0.0227 -0.9279  0.0118
  334UDC     C5 3668   5.526   2.069  10.275 -1.6301 -0.0314 -0.3900
  334UDC     C6 3669   5.480   1.927  10.244 -0.4863 -1.0422 -0.7397
  334UDC     C7 3670   5.579   1.852  10.158  0.4392  0.1259 -0.8418
  334UDC     C8 3671   5.540   1.703  10.164 -0.0815  0.0450  0.4089
  334UDC     C9 3672   5.621   1.620  10.060  0.0651  0.0614  0.1397
  334UDC    C10 3673   5.735   1.713  10.020 -0.9187  0.3133 -0.6507
  334UDC    C11 3674   5.824   1.640   9.923 -0.3598  0.0572  0.2648
  335UDC     C1 3675   7.688   5.307   0.153 -0.5174  1.0838  0.0887
  335UDC     C2 3676   7.614   5.164   0.147  0.8840  0.0252 -0.6190
  335UDC     C3 3677   7.709   5.049   0.188 -0.2687  0.6508 -0.9600
  335UDC     C4 3678   7.834   5.038   0.108 -1.1209 -1.3538  0.1125
  335UDC     C5 3679   7.836   4.899   0.049 -0.0017  0.4303  1.3783
  335UDC     C6 3680   7.890   4.788   0.145  0.0279 -0.0297  0.2118
  335UDC     C7 3681   7.915   4.643   0.097  0.6828  0.2003 -1.1881
  335UDC     C8 3682   7.937   4.544   0.223  0.6964 -1.0475  0.5441
  335UDC     C9 3683   7.848   4.553   0.348 -1.2302  0.4077  0.2258
  335UDC    C10 3684   7.730   4.450   0.354  0.4480  0.0619  0.0487
  335UDC    C11 3685   7.649   4.452   0.483 -0.0059 -0.7158  0.8024
  336UDC     C1 3686  15.563  10.401  11.094 -0.8672  0.7575  0.2845
  336UDC     C2 3687  15.697  10.472  11.089  0.8064 -0.7775  0.1609
  336UDC     C3 3688  15.792  10.445  10.971  0.1384 -0.0528 -0.0502
  336UDC     C4 3689  15.849  10.302  10.938 -0.8659 -0.1225 -0.3076
  336UDC     C5 3690  15.922  10.313  10.801 -0.1760  1.0666 -0.5882
  336UDC     C6 3691  15.844  10.392  10.701  0.5142 -0.4502 -1.1845
  336UDC     C7 3692  15.861  10.375  10.549  0.2692 -0.5775 -1.9664
  336UDC     C8 3693  15.771  10.268  10.481 -0.1838  0.1948 -0.2774
  336UDC     C9 3694  15.810  10.269  10.333 -0.0705  0.4644 -0.0780
  336UDC    C10 3695  15.728  10.155  10.269 -0.0752 -0.0657 -0.6065
  336UDC    C11 3696  15.694  10.046  10.367 -0.1877  0.5577 -0.5018
  337UDC     C1 3697   1.514   0.039   0.930 -0.3828 -0.1850  1.4853
  337UDC     C2 3698   1.406  -0.067   0.964  1.8758  0.1164  0.3789
  337UDC     C3 3699   1.274  -0.055   0.881 -0.3676  0.1143 -0.0221
  337UDC     C4 3700   1.295  -0.106   0.739  0.0709 -0.3908  0.2457
  337UDC     C5 3701   1.201  -0.067   0.627 -0.2554 -0.3733 -0.3546
  337UDC     C6 3702   1.052  -0.101   0.639 -0.2858 -0.3235  0.1389
  337UDC     C7 3703   1.015  -0.234   0.696  0.8792  0.2205  0.0686
  337UDC     C8 3704   1.066  -0.376   0.642 -0.3632 -0.3206 -1.5499
  337UDC     C9 3705   1.004  -0.405   0.502  0.4050  0.8132  1.0856
  337UDC    C10 3706   1.032  -0.550   0.453  0.9723  0.6990 -0.0411
  337UDC    C11 3707   0.982  -0.566   0.304 -0.0463 -0.4301 -0.3776
  338UDC     C1 3708   2.435  19.705  13.018  0.5865 -0.5596  0.0584
  338UDC     C2 3709   2.353  19.638  12.908 -0.9590  0.4663 -0.1167
  338UDC     C3 3710   2.350  19.491  12.921  0.2264  0.4803  0.2871
  338UDC     C4 3711   2.474  19.436  12.847  0.0722  0.2584 -0.9101
  338UDC     C5 3712   2.506  19.290  12.889 -0.0970  0.6246  0.7214
  338UDC     C6 3713   2.600  19.285  13.008  0.7794 -0.0494  0.5758
  338UDC     C7 3714   2.739  19.242  12.971 -0.0476 -0.4864 -1.5722
  338UDC     C8 3715   2.832  19.212  13.089 -0.4779  0.6751 -0.8403
  338UDC     C9 3716   2.889  19.073  13.092 -0.4368  1.0002 -0.3326
  338UDC    C10 3717   2.985  19.056  13.206 -1.0791  0.3085 -0.4241
  338UDC    C11 3718   2.947  18.970  13.334 -0.0906 -0.3307 -0.5040
  339UDC     C1 3719   0.387   3.113   4.078  0.4483  0.5688 -0.6660
  339UDC     C2 3720   0.467   3.105   4.211  0.6085  0.1528  0.6150
  339UDC     C3 3721   0.449   3.213   4.315  0.7695  0.6855 -0.2452
  339UDC     C4 3722   0.311   3.269   4.357  0.3392  0.1842 -0.1477
  339UDC     C5 3723   0.328   3.401   4.442 -0.0470  0.7086 -0.2713
  339UDC     C6 3724   0.433   3.501   4.393 -0.6536 -0.1396 -0.2545
  339UDC     C7 3725   0.451   3.608   4.501  1.0614 -0.0499  0.7388
  339UDC     C8 3726   0.494   3.553   4.632 -0.9039  0.0958 -1.7239
  339UDC     C9 3727   0.610   3.637   4.685  0.9057 -0.8458 -0.3805
  339UDC    C10 3728   0.663   3.628   4.828 -0.2248  0.2387 -0.1841
  339UDC    C11 3729   0.723   3.765   4.867 -0.3809 -0.2992 -0.5089
  340UDC     C1 3730   9.557  13.212  15.357  1.0063  0.3358 -0.1711
  340UDC     C2 3731   9.496  13.345  15.303  0.0078  1.0514  0.4155
  340UDC     C3 3732   9.433  13.367  15.164 -0.7999  0.9959 -0.4204
  340UDC     C4 3733   9.415  13.521  15.143  0.7888 -0.1662  0.3628
  340UDC     C5 3734   9.272  13.568  15.198 -0.4116 -0.2442  0.0755
  340UDC     C6 3735   9.249  13.719  15.176  0.0949 -0.4814  0.1633
  340UDC     C7 3736   9.111  13.773  15.134  0.8509 -0.0298  0.7061
  340UDC     C8 3737   9.099  13.928  15.137  0.0841  0.8756 -0.1351
  340UDC     C9 3738   8.963  13.968  15.184  1.0641  0.5359 -0.7810
  340UDC    C10 3739   8.920  13.929  15.330 -0.6814 -0.2098 -0.1135
  340UDC    C11 3740   8.968  14.014  15.451  0.0703  0.0657 -0.9794
  341UDC     C1 3741   2.870   5.162  12.026  0.0775 -0.3529  0.4233
  341UDC     C2 3742   2.917   5.306  11.976  0.9825  0.7849  0.0891
  341UDC     C3 3743   2.808   5.399  12.035  0.2570  0.0744 -0.2261
  341UDC     C4 3744   2.883   5.522  12.075  0.4711  0.5689  0.1133
  341UDC     C5 3745   2.782   5.626  12.127  0.5776  0.8036 -0.0945
  341UDC     C6 3746   2.864   5.742  12.182 -0.8312 -0.8238 -0.5788
  341UDC     C7 3747   2.775   5.848  12.250  0.1647  0.3651  0.4294
  341UDC     C8 3748   2.823   5.987  12.270 -0.3171 -1.1358  0.5319
  341UDC     C9 3749   2.801   6.082  12.154 -0.4663 -0.4783  0.1691
  341UDC    C10 3750   2.663   6.137  12.127  1.0694  0.2979 -0.0508
  341UDC    C11 3751   2.634   6.224  11.990 -0.5877 -0.1055  0.0089
  342UDC     C1 3752   1.676   0.483   2.001 -0.3314 -0.4230  0.6863
  342UDC     C2 3753   1.643   0.547   1.869 -0.4669  0.0080 -0.2489
  342UDC     C3 3754   1.769   0.534   1.779  0.0988 -1.1308  0.5474
  342UDC     C4 3755   1.741   0.436   1.663 -1.2267  0.3230  0.9104
  342UDC     C5 3756   1.858   0.379   1.580  0.0858  0.2825  0.3770
  342UDC     C6 3757   1.985   0.319   1.630 -0.8165  0.4058 -1.0408
  342UDC     C7 3758   1.964   0.194   1.725 -0.1018  1.1072  0.9800
  342UDC     C8 3759   2.075   0.089   1.708  0.3660 -0.5259 -0.5485
  342UDC     C9 3760   2.057  -0.061   1.699 -0.6539 -0.2481  0.3537
  342UDC    C10 3761   2.184  -0.138   1.678 -0.3982  0.6054  0.1265
  342UDC    C11 3762   2.168  -0.286   1.714  0.7931  1.4346  0.2195
  343UDC     C1 3763   0.268   4.787   6.199  0.2481 -0.3264 -1.0085
  343UDC     C2 3764   0.359   4.905   6.236  0.8933 -0.7057  0.3821
  343UDC     C3 3765   0.291   5.048   6.256  0.0896  0.8736  0.0826
  343UDC     C4 3766   0.268   5.141   6.132  0.1977 -0.6700 -0.3931
  343UDC     C5 3767   0.391   5.224   6.083 -0.3626 -0.8205 -0.1953
  343UDC     C6 3768   0.365   5.268   5.939 -1.1733  0.6845  0.2917
  343UDC     C7 3769   0.248   5.359   5.909  1.0821  0.9744  0.2186
  343UDC     C8 3770   0.243   5.435   5.777  0.3418  0.8603  1.2985
  343UDC     C9 3771   0.120   5.513   5.723 -0.5413  0.7687 -1.3552
  343UDC    C10 3772   0.124   5.577   5.585  0.0232  0.4970  0.3356
  343UDC    C11 3773   0.000   5.675   5.578  0.3235 -0.3352  0.2003
  344UDC     C1 3774  15.902   7.247   8.380  0.0307 -1.0789 -0.1100
  344UDC     C2 3775  15.875   7.366   8.288 -0.1867 -0.0553 -0.0075
  344UDC     C3 3776  15.983   7.472   8.271  0.0631  0.0618 -0.3005
  344UDC     C4 3777  15.966   7.549   8.138  0.8437  0.6116 -0.6134
  344UDC     C5 3778  16.089   7.630   8.092  0.6997 -0.3979 -0.2443
  344UDC     C6 3779  16.134   7.634   7.947  0.2180 -0.7052  0.1068
  344UDC     C7 3780  16.262   7.713   7.976  0.0447  0.1230  0.6400
  344UDC     C8 3781  16.385   7.629   7.996  0.2355  0.2240  0.0197
  344UDC     C9 3782  16.524   7.684   8.018  0.2498  0.1473 -0.5630
  344UDC    C10 3783  16.620   7.587   8.093  0.2539 -0.5495 -0.6638
  344UDC    C11 3784  16.629   7.445   8.027 -0.3367 -0.1513 -0.8351
  345UDC     C1 3785  12.515  11.578   1.937  0.2395 -0.5979  0.2548
  345UDC     C2 3786  12.477  11.514   1.806 -0.6212 -1.9407  0.3457
  345UDC     C3 3787  12.542  11.587   1.690  0.4874  0.0300  1.0545
  345UDC     C4 3788  12.515  11.523   1.552  0.6142  0.0027  0.7322
  345UDC     C5 3789  12.602  11.419   1.483 -0.7406  0.2149 -0.3844
  345UDC     C6 3790  12.546  11.347   1.360  0.4669 -0.4315 -0.1784
  345UDC     C7 3791  12.414  11.284   1.377  0.2856 -0.0949 -0.1947
  345UDC     C8 3792  12.414  11.153   1.456 -1.2544 -0.4281 -0.5085
  345UDC     C9 3793  12.282  11.084   1.487  0.2971  0.5099  0.3693
  345UDC    C10 3794  12.210  11.137   1.610  0.4273  0.0227  0.1995
  345UDC    C11 3795  12.104  11.029   1.618  0.0289  0.0299  0.3923
  346UDC     C1 3796  18.234   3.617  19.562  1.4026  0.9783 -0.9794
  346UDC     C2 3797  18.153   3.523  19.464 -0.7094 -0.5178  0.6561
  346UDC     C3 3798  18.078   3.585  19.348  0.1512 -0.0597 -0.4589
  346UDC     C4 3799  18.044   3.482  19.242  0.3833 -0.6036 -0.2502
  346UDC     C5 3800  17.963   3.375  19.302 -0.7344 -1.2129  0.2945
  346UDC     C6 3801  17.973   3.252  19.209 -0.7411  1.2916 -0.1415
  346UDC     C7 3802  17.908   3.125  19.275  0.0882  0.3756 -0.2120
  346UDC     C8 3803  17.891   2.997  19.173 -0.5331 -0.0534 -0.6954
  346UDC     C9 3804  17.763   2.946  19.120 -0.8817  0.6762  0.8019
  346UDC    C10 3805  17.722   2.822  19.201 -0.5495 -0.0758 -0.2612
  346UDC    C11 3806  17.644   2.852  19.331 -0.9451  0.6806 -0.8773
  347UDC     C1 3807  16.400  16.856   9.324 -0.5943 -0.2120 -0.0561
  347UDC     C2 3808  16.406  16.777   9.193 -0.2402  0.3200  0.1400
  347UDC     C3 3809  16.364  16.626   9.207  0.2532 -1.2560 -0.2280
  347UDC     C4 3810  16.434  16.545   9.103 -0.6466  1.2079  0.1841
  347UDC     C5 3811  16.380  16.401   9.107  0.4397 -0.2856  0.6504
  347UDC     C6 3812  16.411  16.326   9.239  0.5260 -0.5389 -0.6118
  347UDC     C7 3813  16.364  16.178   9.265 -0.4831  0.4252 -1.5120
  347UDC     C8 3814  16.371  16.083   9.151 -0.5426  0.7972  0.3392
  347UDC     C9 3815  16.377  15.940   9.208 -0.2153  0.8418 -0.6112
  347UDC    C10 3816  16.245  15.896   9.290 -0.0653  0.4239  0.9862
  347UDC    C11 3817  16.137  15.815   9.211 -0.4994 -0.2039 -0.1398
  348UDC     C1 3818  18.089  17.185   8.063  0.2403  0.5078  0.0533
  348UDC     C2 3819  18.036  17.235   8.200 -0.7170  0.5395  0.5322
  348UDC     C3 3820  18.040  17.145   8.329 -0.0772  0.6562 -0.4166
  348UDC     C4 3821  18.018  17.196   8.473  0.7641  0.2388 -0.8812
  348UDC     C5 3822  17.964  17.076   8.563 -0.1381 -0.4398  0.3850
  348UDC     C6 3823  17.896  17.097   8.697 -0.2620 -0.1602 -0.5350
  348UDC     C7 3824  17.921  16.964   8.767 -0.5284 -0.1863  1.2594
  348UDC     C8 3825  17.841  16.848   8.707 -1.0283  0.7907 -0.0558
  348UDC     C9 3826  17.855  16.713   8.783  0.3744 -0.8703 -0.1645
  348UDC    C10 3827  17.835  16.576   8.720  0.6892  0.5872  0.9478
  348UDC    C11 3828  17.693  16.566   8.657 -0.4476 -0.2826  0.9737
  349UDC     C1 3829  17.892  15.187  19.653  1.2034  0.4724 -0.1737
  349UDC     C2 3830  17.907  15.110  19.512  0.5772 -0.4454  0.2331
  349UDC     C3 3831  17.870  15.195  19.380  1.4559  0.1677  0.2831
  349UDC     C4 3832  17.729  15.215  19.326  0.7694  0.8874 -0.0121
  349UDC     C5 3833  17.722  15.291  19.194  0.5819 -0.6176  1.2399
  349UDC     C6 3834  17.851  15.368  19.160  0.5712 -0.8476  0.2910
  349UDC     C7 3835  17.853  15.414  19.007  0.5522  0.1608 -0.2453
  349UDC     C8 3836  17.994  15.460  18.962  0.1433  0.0742  0.3383
  349UDC     C9 3837  17.977  15.522  18.822  0.5991 -0.8559  0.8373
  349UDC    C10 3838  18.117  15.535  18.758  0.0181 -0.2716 -0.1321
  349UDC    C11 3839  18.136  15.598  18.616 -0.7465 -0.3885 -0.1954
  350UDC     C1 3840   0.187   6.596   2.558  0.7663 -0.0304 -0.6438
  350UDC     C2 3841   0.331   6.593   2.611  0.0880  0.2360 -0.4582
  350UDC     C3 3842   0.425   6.477   2.559  0.8571  0.6457 -0.1795
  350UDC     C4 3843   0.555   6.488   2.633  0.1876 -0.1032  0.2829
  350UDC     C5 3844   0.625   6.619   2.599 -0.0313  0.9064  0.2065
  350UDC     C6 3845   0.774   6.642   2.638  0.1871  0.7970 -1.1198
  350UDC     C7 3846   0.832   6.774   2.590 -1.4390 -0.3156 -0.0484
  350UDC     C8 3847   0.776   6.902   2.657  0.4427  0.1698  0.4643
  350UDC     C9 3848   0.836   7.040   2.601  0.1117  0.8843 -0.6256
  350UDC    C10 3849   0.779   7.169   2.673 -0.2140 -0.4388 -0.3146
  350UDC    C11 3850   0.799   7.155   2.827 -0.1788 -0.3133  0.4214
  351UDC     C1 3851   8.075   7.470  19.060 -0.0832  1.4801 -0.4056
  351UDC     C2 3852   7.934   7.445  18.993 -0.5689  0.0641  1.1130
  351UDC     C3 3853   7.940   7.327  18.887 -0.4863 -0.0090 -0.4787
  351UDC     C4 3854   8.014   7.353  18.758  0.4695 -0.3968 -0.5332
  351UDC     C5 3855   7.936   7.449  18.662  0.1373 -0.0184  0.3035
  351UDC     C6 3856   7.996   7.510  18.538  0.0974  1.3523  0.5271
  351UDC     C7 3857   7.937   7.645  18.516  0.4830 -0.4689 -0.2705
  351UDC     C8 3858   7.781   7.636  18.525 -0.2208 -0.2999  0.3088
  351UDC     C9 3859   7.711   7.768  18.493  0.2572 -0.1789 -0.1190
  351UDC    C10 3860   7.777   7.900  18.538  0.4307  0.3476 -0.2345
  351UDC    C11 3861   7.687   8.026  18.532 -0.1997 -0.3664 -0.4765
  352UDC     C1 3862   3.242   7.847  14.731  0.2526  1.1304 -0.0739
  352UDC     C2 3863   3.133   7.927  14.669  0.2128 -0.1823 -0.3720
  352UDC     C3 3864   2.991   7.873  14.713 -0.0055 -0.9817  0.5372
  352UDC     C4 3865   2.875   7.947  14.642  0.5901  1.4271 -0.6187
  352UDC     C5 3866   2.904   8.078  14.565  0.1037  0.8025  0.7964
  352UDC     C6 3867   2.778   8.161  14.544  1.0525 -0.2627 -0.3616
  352UDC     C7 3868   2.673   8.081  14.455  0.3804 -0.0144 -0.3707
  352UDC     C8 3869   2.629   8.185  14.356  0.2571  0.6072 -0.8614
  352UDC     C9 3870   2.495   8.188  14.281 -0.1136  0.0542 -1.4401
  352UDC    C10 3871   2.465   8.313  14.198 -0.0396 -0.0898 -0.8339
  352UDC    C11 3872   2.570   8.353  14.100 -0.8103  0.4944  0.7552
  353UDC     C1 3873   3.314   8.005  18.853  0.7439  0.0860  0.9988
  353UDC     C2 3874   3.445   8.040  18.924 -0.6946  0.5802  0.2196
  353UDC     C3 3875   3.495   7.910  18.995 -0.9583 -0.1503 -1.2033
  353UDC     C4 3876   3.601   7.920  19.112  0.1669  0.1938 -0.2198
  353UDC     C5 3877   3.658   7.785  19.137  0.7013 -0.0718 -0.7586
  353UDC     C6 3878   3.704   7.767  19.287 -0.8558 -0.1634  0.2300
  353UDC     C7 3879   3.759   7.621  19.326  0.2341 -0.0121 -0.1642
  353UDC     C8 3880   3.763   7.576  19.472  0.0200  0.4084  0.4478
  353UDC     C9 3881   3.812   7.423  19.465  0.9462  0.4612 -0.2622
  353UDC    C10 3882   3.952   7.397  19.511 -0.1924 -0.0041  1.0838
  353UDC    C11 3883   3.987   7.251  19.526  0.2623 -0.5886  0.3056
  354UDC     C1 3884  17.108   4.648  18.466  0.5875 -0.0004 -0.1331
  354UDC     C2 3885  17.033   4.601  18.336 -0.2008  0.3230 -0.5614
  354UDC     C3 3886  17.049   4.690  18.208  0.0367  0.4050 -0.4803
  354UDC     C4 3887  17.194   4.692  18.156 -0.6142  0.8310  0.1165
  354UDC     C5 3888  17.210   4.792  18.041  0.1556  0.3951 -0.7892
  354UDC     C6 3889  17.322   4.755  17.940  0.3357 -0.1000 -0.4648
  354UDC     C7 3890  17.440   4.853  17.967  0.5184  0.0536 -0.3025
  354UDC     C8 3891  17.506   4.912  17.844 -0.4375 -0.3498 -1.0965
  354UDC     C9 3892  17.594   4.802  17.780 -0.2022 -0.5614  0.6942
  354UDC    C10 3893  17.734   4.779  17.831  1.1431 -0.7034  0.7128
  354UDC    C11 3894  17.794   4.661  17.756 -0.3610 -0.9258  0.5989
  355UDC     C1 3895   9.329  15.829  14.457 -0.9198  0.0501  0.3677
  355UDC     C2 3896   9.198  15.873  14.534 -0.5022 -0.1592 -0.1249
  355UDC     C3 3897   9.064  15.807  14.501  0.0453  0.4841 -0.1235
  355UDC     C4 3898   9.069  15.653  14.513  0.1051  0.1044  0.7979
  355UDC     C5 3899   9.108  15.622  14.661 -0.8287  0.6178  0.4319
  355UDC     C6 3900   9.046  15.494  14.719 -0.3200 -0.9130  0.2074
  355UDC     C7 3901   9.098  15.467  14.857 -1.1058 -0.1637  0.1415
  355UDC     C8 3902   9.243  15.408  14.861  0.6262  0.1783  0.1851
  355UDC     C9 3903   9.303  15.354  14.994 -0.5482  0.1099 -0.0397
  355UDC    C10 3904   9.250  15.210  15.028 -0.8948 -0.1681  0.8834
  355UDC    C11 3905   9.336  15.090  15.029 -0.1264  0.3579  0.0301
  356UDC     C1 3906  14.214  13.906   9.682  0.2203  0.3162 -1.6200
  356UDC     C2 3907  14.097  13.915   9.587 -0.3572 -0.9082  0.2465
  356UDC     C3 3908  14.075  14.055   9.529 -1.0296  0.7475  0.5652
  356UDC     C4 3909  13.999  14.052   9.395  0.4267  0.8125 -0.8641
  356UDC     C5 3910  14.010  14.193   9.342 -0.3136  0.6889  0.0242
  356UDC     C6 3911  13.942  14.212   9.212  0.5637  0.2330 -0.5151
  356UDC     C7 3912  14.012  14.124   9.094 -0.5787  0.5830 -0.1406
  356UDC     C8 3913  14.153  14.179   9.073  0.5581  0.1863 -0.1764
  356UDC     C9 3914  14.258  14.087   9.008  0.0298  0.2370  0.6269
  356UDC    C10 3915  14.396  14.160   8.993  0.7395 -0.6975  0.4071
  356UDC    C11 3916  14.455  14.223   9.119 -0.3017 -0.0948 -0.5464
  357UDC     C1 3917  11.955  10.746   1.089  1.6264  0.1229  0.4088
  357UDC     C2 3918  11.874  10.746   0.957 -1.3589 -0.7785 -0.8513
  357UDC     C3 3919  11.749  10.831   0.971  1.1820  0.8402  0.1525
  357UDC     C4 3920  11.625  10.752   1.025  0.4189  0.0771  0.1490
  357UDC     C5 3921  11.506  10.842   1.068  0.4517 -0.3167  0.2004
  357UDC     C6 3922  11.434  10.810   1.197 -1.2863  0.5272 -0.0859
  357UDC     C7 3923  11.345  10.916   1.258  0.2653 -0.2960  0.4264
  357UDC     C8 3924  11.413  11.030   1.334 -0.5385  0.8733 -0.0107
  357UDC     C9 3925  11.458  10.996   1.477 -1.4574  0.5084 -1.2379
  357UDC    C10 3926  11.328  10.972   1.560  0.6642 -1.7964  0.4504
  357UDC    C11 3927  11.276  11.118   1.590  0.5223  0.0588  0.6483
  358UDC     C1 3928  13.364   9.078   9.250  0.4779  0.6685  0.2932
  358UDC     C2 3929  13.358   8.946   9.172 -1.0391  0.1455 -1.3458
  358UDC     C3 3930  13.238   8.960   9.072  0.0538 -0.9122  1.0217
  358UDC     C4 3931  13.181   8.835   9.009  0.6153 -1.0891 -0.6204
  358UDC     C5 3932  13.076   8.879   8.905 -1.3641  0.9002 -0.8302
  358UDC     C6 3933  13.039   8.753   8.826 -1.3722 -0.9171 -0.4718
  358UDC     C7 3934  12.950   8.642   8.885 -0.0793 -0.5397  0.7286
  358UDC     C8 3935  12.958   8.533   8.785  0.8910  1.8841  1.6109
  358UDC     C9 3936  12.911   8.592   8.652 -0.0455 -0.3620 -0.3641
  358UDC    C10 3937  12.933   8.484   8.550 -0.2624  0.5972  0.7094
  358UDC    C11 3938  12.839   8.357   8.558 -0.2696 -0.3224 -0.2742
  359UDC     C1 3939  14.384  13.164  18.457  0.1362 -0.3334  0.0400
  359UDC     C2 3940  14.377  13.125  18.302  0.6935  0.1330 -0.0925
  359UDC     C3 3941  14.468  13.196  18.202  0.4369 -0.7029  0.8948
  359UDC     C4 3942  14.399  13.182  18.062 -0.8186 -1.5307  0.9786
  359UDC     C5 3943  14.406  13.045  17.988  0.3249  0.8256  0.0023
  359UDC     C6 3944  14.371  13.021  17.836 -0.2692  0.0434 -0.1816
  359UDC     C7 3945  14.349  12.868  17.796 -0.6472  0.2926  1.3860
  359UDC     C8 3946  14.240  12.803  17.874 -0.8341 -0.4055 -0.1471
  359UDC     C9 3947  14.129  12.896  17.850  1.0849 -0.9157  0.3480
  359UDC    C10 3948  13.985  12.844  17.871 -0.0070  0.8972 -0.2287
  359UDC    C11 3949  13.971  12.795  18.015 -0.8951  0.8930 -0.5322
  360UDC     C1 3950   9.285   1.920   5.920  0.1953  1.5798 -0.0129
  360UDC     C2 3951   9.196   2.044   5.918  0.0271 -0.6396 -0.9887
  360UDC     C3 3952   9.272   2.148   6.008 -0.0121 -0.3458  0.2207
  360UDC     C4 3953   9.170   2.251   6.056 -0.0329  0.2319 -0.3130
  360UDC     C5 3954   9.189   2.314   6.196  0.3870  0.1772  0.6155
  360UDC     C6 3955   9.190   2.217   6.313  0.3661  2.0206  1.4599
  360UDC     C7 3956   9.055   2.232   6.389  0.5942 -0.5490 -0.6590
  360UDC     C8 3957   9.058   2.281   6.536  0.5746 -1.1650  1.8722
  360UDC     C9 3958   8.921   2.309   6.602 -0.7602  0.7432  0.1106
  360UDC    C10 3959   8.930   2.403   6.722 -1.0194  0.4583 -0.1342
  360UDC    C11 3960   8.977   2.541   6.686  0.9027  0.4489  0.6850
  361UDC     C1 3961  11.018  12.631   5.017 -1.0148 -0.8637 -0.1261
  361UDC     C2 3962  10.948  12.504   4.979  0.0948  0.7963 -0.7068
  361UDC     C3 3963  11.016  12.371   5.018  0.3795 -0.5771 -0.0712
  361UDC     C4 3964  10.934  12.241   5.031  0.3713 -0.6442 -0.7255
  361UDC     C5 3965  11.019  12.118   5.058 -0.6926  0.5337  0.6064
  361UDC     C6 3966  10.943  11.986   5.027  0.9080 -0.2898 -0.3602
  361UDC     C7 3967  11.028  11.861   5.022  0.8777 -0.0065 -0.7226
  361UDC     C8 3968  10.961  11.759   4.928  0.1116 -0.2214 -0.1272
  361UDC     C9 3969  11.036  11.757   4.791  0.1203 -0.8786  0.2070
  361UDC    C10 3970  10.953  11.701   4.665 -0.5256 -0.7797 -0.3036
  361UDC    C11 3971  11.011  11.569   4.603 -0.7963 -0.0827 -0.5321
  362UDC     C1 3972  12.718  14.678   8.449  0.2857 -0.7820 -0.4996
  362UDC     C2 3973  12.662  14.537   8.501 -0.0193  0.0967 -0.5342
  362UDC     C3 3974  12.629  14.536   8.654 -1.4856  0.3235  0.6511
  362UDC     C4 3975  12.757  14.550   8.728 -0.7927  0.7319  0.3118
  362UDC     C5 3976  12.741  14.553   8.883  0.0067 -0.0188 -0.0792
  362UDC     C6 3977  12.873  14.544   8.962 -0.2404  0.1682 -0.7067
  362UDC     C7 3978  12.863  14.558   9.120  0.3114  0.1815  0.2819
  362UDC     C8 3979  12.794  14.444   9.191  0.6073  1.2779 -0.1108
  362UDC     C9 3980  12.858  14.305   9.197 -0.6401 -0.4470  0.2693
  362UDC    C10 3981  12.813  14.188   9.113 -0.6575  0.6752  0.0750
  362UDC    C11 3982  12.680  14.144   9.163 -0.3560 -0.2472  1.6738
  363UDC     C1 3983  10.356  12.772   1.314 -0.3371  0.8791  0.5035
  363UDC     C2 3984  10.405  12.702   1.189  0.9013  1.1568  0.3370
  363UDC     C3 3985  10.513  12.787   1.116 -0.7199 -0.8338 -0.7140
  363UDC     C4 3986  10.466  12.906   1.036 -0.3697  0.0876  0.8082
  363UDC     C5 3987  10.402  12.852   0.907 -0.3668 -0.0456  0.4712
  363UDC     C6 3988  10.498  12.777   0.812 -0.0899 -0.9050  0.9807
  363UDC     C7 3989  10.424  12.707   0.697  0.4844  0.1817  0.5578
  363UDC     C8 3990  10.487  12.580   0.634 -0.5103 -0.3055 -0.2939
  363UDC     C9 3991  10.639  12.591   0.586  0.1695  1.1842 -0.6078
  363UDC    C10 3992  10.665  12.641   0.446  0.3740 -0.3998 -0.3425
  363UDC    C11 3993  10.796  12.709   0.430 -0.1179 -0.0095 -0.2277
  364UDC     C1 3994   6.814  14.004   0.432  0.4943 -0.3737 -0.7166
  364UDC     C2 3995   6.765  13.989   0.288 -0.2325  0.2365  0.1392
  364UDC     C3 3996   6.662  14.095   0.250  0.4125  0.3550  0.5490
  364UDC     C4 3997   6.560  14.061   0.134 -0.6651 -0.6001 -0.1296
  364UDC     C5 3998   6.502  13.921   0.127 -0.0058  0.3088  0.0769
  364UDC     C6 3999   6.470  13.874  -0.014 -0.4784  0.0470  0.4222
  364UDC     C7 4000   6.388  13.747  -0.038  0.5089 -1.0376 -0.2893
  364UDC     C8 4001   6.452  13.621   0.007 -1.4834  1.0169 -0.1748
  364UDC     C9 4002   6.372  13.494   0.022  1.1924  0.1367  0.4481
  364UDC    C10 4003   6.447  13.392   0.096  0.4352  0.4112 -0.7752
  364UDC    C11 4004   6.388  13.252   0.055 -0.5664 -0.7713 -0.9790
  365UDC     C1 4005  17.202   6.363  10.105  0.1199  0.5890  0.3767
  365UDC     C2 4006  17.301   6.267  10.032  0.4858  0.2753  0.4556
  365UDC     C3 4007  17.426   6.328   9.974 -0.1444  0.0282 -1.1693
  365UDC     C4 4008  17.446   6.276   9.832 -0.3811  0.2371  0.0344
  365UDC     C5 4009  17.594   6.300   9.790  0.0098 -0.9850 -0.3338
  365UDC     C6 4010  17.608   6.308   9.643  0.3158 -0.4243 -0.6308
  365UDC     C7 4011  17.585   6.452   9.592 -0.6877  0.1310  0.1415
  365UDC     C8 4012  17.450   6.512   9.567  0.3281 -0.1712  1.0643
  365UDC     C9 4013  17.460   6.649   9.491 -0.1976  0.6940 -0.5709
  365UDC    C10 4014  17.330   6.706   9.446 -0.7762 -0.1628 -0.4645
  365UDC    C11 4015  17.344   6.838   9.373 -0.1781 -0.2093 -0.6120
  366UDC     C1 4016  19.056   1.545  16.828 -0.1162 -0.5437 -0.6041
  366UDC     C2 4017  19.209   1.509  16.830 -0.5499  0.0010 -0.9991
  366UDC     C3 4018  19.303   1.626  16.855  0.0781 -0.4172  0.1355
  366UDC     C4 4019  19.297   1.674  17.002 -0.5102 -0.4362 -1.0029
  366UDC     C5 4020  19.355   1.812  17.062  0.3943  0.4866  0.2532
  366UDC     C6 4021  19.290   1.932  16.995  0.6715  0.1158 -0.1850
  366UDC     C7 4022  19.272   2.058  17.081  0.5333  0.0502 -0.6824
  366UDC     C8 4023  19.160   2.073  17.191 -0.3201 -0.1471  0.5063
  366UDC     C9 4024  19.019   2.033  17.138 -0.0044  0.6876 -0.4714
  366UDC    C10 4025  18.914   2.111  17.220  0.3219 -0.5933  0.1931
  366UDC    C11 4026  18.757   2.092  17.201 -0.6441  0.7215  0.8425
  367UDC     C1 4027  19.053   9.903  14.919 -0.0156  0.2922 -0.4090
  367UDC     C2 4028  19.150   9.862  15.031  0.0173  0.3946  0.8249
  367UDC     C3 4029  19.137   9.728  15.104  0.0602 -0.2882 -0.2276
  367UDC     C4 4030  19.266   9.661  15.167 -0.0417  0.4324 -0.6993
  367UDC     C5 4031  19.359   9.610  15.053 -0.9878  0.3113  0.4783
  367UDC     C6 4032  19.497   9.563  15.098 -0.3791  0.3149  0.6428
  367UDC     C7 4033  19.594   9.526  14.979  0.7132 -0.3305  0.6052
  367UDC     C8 4034  19.530   9.451  14.861  0.5796  0.9027  0.1610
  367UDC     C9 4035  19.620   9.420  14.748  0.5528 -1.6137  0.2783
  367UDC    C10 4036  19.536   9.403  14.620 -0.0390 -0.2629  0.4126
  367UDC    C11 4037  19.435   9.510  14.591  0.6551  0.0265  0.4269
  368UDC     C1 4038   7.113  14.952  19.199  0.0633  0.0940 -0.3642
  368UDC     C2 4039   7.066  14.836  19.282  0.4510  0.6359 -0.3230
  368UDC     C3 4040   6.918  14.862  19.339  0.8686  0.2069  0.0906
  368UDC     C4 4041   6.868  14.744  19.427 -0.0037 -0.2722  1.0103
  368UDC     C5 4042   6.734  14.750  19.492 -0.6417  0.5357 -0.1056
  368UDC     C6 4043   6.746  14.754  19.644 -0.8941 -0.3343  0.0562
  368UDC     C7 4044   6.776  14.894  19.709 -0.4981 -0.6450  0.1437
  368UDC     C8 4045   6.896  14.896  19.805 -0.0400 -0.6637  0.4030
  368UDC     C9 4046   7.035  14.934  19.746  0.1550 -0.2021 -0.6448
  368UDC    C10 4047   7.122  14.964  19.873  0.5861  0.3611 -0.2085
  368UDC    C11 4048   7.219  14.844  19.906 -0.3946 -1.7588  0.4278
  369UDC     C1 4049   5.648   3.479  16.983  0.3110 -0.5540  0.4138
  369UDC     C2 4050   5.613   3.335  16.933 -0.5594 -0.9261 -1.2358
  369UDC     C3 4051   5.733   3.243  16.961 -0.4120  0.7543  0.8332
  369UDC     C4 4052   5.732   3.143  17.080 -0.1778 -0.2191 -1.0642
  369UDC     C5 4053   5.619   3.032  17.087 -0.2996  0.1623  0.5663
  369UDC     C6 4054   5.552   2.973  17.209  0.3457 -1.1962  0.1425
  369UDC     C7 4055   5.435   2.889  17.179  0.1146  0.1799  0.1225
  369UDC     C8 4056   5.369   2.806  17.287  0.3903 -0.2126 -0.2010
  369UDC     C9 4057   5.225   2.761  17.252 -0.7815  0.7184 -0.7006
  369UDC    C10 4058   5.119   2.868  17.229 -0.7128 -0.0901  0.4108
  369UDC    C11 4059   4.979   2.839  17.168  0.4080  0.0675 -0.5727
  370UDC     C1 4060  13.035   1.788  18.691  0.3276 -0.2880  0.1414
  370UDC     C2 4061  12.966   1.652  18.668  0.3024  0.2661 -1.3018
  370UDC     C3 4062  13.019   1.556  18.562 -0.5676 -1.0624  0.5955
  370UDC     C4 4063  12.906   1.499  18.471 -0.7820  0.4413  0.5573
  370UDC     C5 4064  12.942   1.397  18.364  0.6357 -0.0424  0.3034
  370UDC     C6 4065  12.959   1.252  18.407  1.0502  0.3012 -0.2088
  370UDC     C7 4066  12.982   1.149  18.287  0.1701 -0.9537  0.4817
  370UDC     C8 4067  13.117   1.178  18.218  0.6439 -1.2935  0.0813
  370UDC     C9 4068  13.155   1.093  18.089 -0.6475  0.1787 -0.0583
  370UDC    C10 4069  13.300   1.132  18.030  1.0187  0.1774  0.6366
  370UDC    C11 4070  13.334   1.255  17.946  0.9102 -0.5887  0.6999
  371UDC     C1 4071  12.740   4.419   0.765 -0.1248  0.9500 -0.1570
  371UDC     C2 4072  12.706   4.308   0.873 -0.5681 -0.2219  0.3593
  371UDC     C3 4073  12.846   4.244   0.885  0.1298  0.0493  0.1402
  371UDC     C4 4074  12.951   4.337   0.953 -0.2564 -0.6402  0.8372
  371UDC     C5 4075  13.097   4.296   0.961 -0.8867  0.3862 -0.9257
  371UDC     C6 4076  13.140   4.239   1.092 -0.3146 -0.1685  0.2730
  371UDC     C7 4077  13.090   4.089   1.104  0.0271  0.0911 -0.4043
  371UDC     C8 4078  13.145   4.017   1.226  0.3108 -0.1661  0.6772
  371UDC     C9 4079  13.112   3.873   1.247  1.0226 -0.0412  0.3848
  371UDC    C10 4080  13.148   3.768   1.144 -0.6369  0.9419  1.0375
  371UDC    C11 4081  13.077   3.642   1.193 -0.1755 -0.3983 -0.6230
  372UDC     C1 4082  13.584   5.840  17.910  0.0622  0.3198  0.0309
  372UDC     C2 4083  13.463   5.793  17.830  1.0010 -0.0164 -0.1910
  372UDC     C3 4084  13.439   5.911  17.730 -0.2426 -0.8835  0.8445
  372UDC     C4 4085  13.577   5.961  17.677 -0.3916 -0.6481 -0.4783
  372UDC     C5 4086  13.583   6.095  17.595 -0.0293  0.0655 -1.5590
  372UDC     C6 4087  13.722   6.150  17.557  0.5411 -0.4985  0.8579
  372UDC     C7 4088  13.722   6.174  17.406 -0.5072 -0.0545 -0.6189
  372UDC     C8 4089  13.840   6.267  17.371 -0.1031  0.7352 -0.1077
  372UDC     C9 4090  13.861   6.301  17.221  0.1630  0.0347  1.0875
  372UDC    C10 4091  14.001   6.364  17.214  0.6065 -0.6741  0.1177
  372UDC    C11 4092  13.983   6.495  17.137 -0.3345 -0.1996 -0.4007
  373UDC     C1 4093   8.068   5.692  15.918 -0.8778  0.9043  0.9725
  373UDC     C2 4094   8.166   5.570  15.955  0.4163  0.1880 -0.3044
  373UDC     C3 4095   8.189   5.547  16.103  0.1434  0.4242  0.8437
  373UDC     C4 4096   8.060   5.505  16.174 -0.7102  0.3828  0.4001
  373UDC     C5 4097   7.965   5.398  16.109 -0.4842 -0.5753 -0.5476
  373UDC     C6 4098   8.010   5.256  16.146  0.3470 -0.0592 -0.0837
  373UDC     C7 4099   7.912   5.139  16.106 -0.1026 -0.0087 -0.7858
  373UDC     C8 4100   7.984   5.018  16.055 -0.7798  0.8248 -1.2982
  373UDC     C9 4101   8.079   5.052  15.938  0.4458 -0.1819 -0.6106
  373UDC    C10 4102   8.103   4.942  15.835 -0.1691 -0.5948 -0.0925
  373UDC    C11 4103   8.168   4.813  15.890  0.3128 -0.6961 -0.4307
  374UDC     C1 4104   4.011  12.448   2.968  0.9631  0.6005 -0.9084
  374UDC     C2 4105   4.159  12.450   2.929  0.7382 -0.4948  0.1852
  374UDC     C3 4106   4.181  12.467   2.775  1.0457  0.0221 -0.6217
  374UDC     C4 4107   4.317  12.531   2.744  0.9099  0.8577  0.9065
  374UDC     C5 4108   4.439  12.457   2.805 -0.4561 -0.1023 -0.3751
  374UDC     C6 4109   4.573  12.506   2.743 -0.8351 -0.3568 -1.2589
  374UDC     C7 4110   4.617  12.436   2.611  0.1715  0.3335 -0.1113
  374UDC     C8 4111   4.620  12.282   2.605  1.1578  1.0106  0.3566
  374UDC     C9 4112   4.726  12.220   2.510  0.3270  0.2481  0.6266
  374UDC    C10 4113   4.846  12.175   2.584 -0.2044  0.1457 -0.0835
  374UDC    C11 4114   4.983  12.149   2.510  0.7875 -0.3077 -0.4396
  375UDC     C1 4115  17.575   4.958  18.536  0.7527  0.8450  0.5255
  375UDC     C2 4116  17.684   5.035  18.458 -0.0691  0.6402 -0.1251
  375UDC     C3 4117  17.752   5.149  18.519 -0.6024  0.6744 -0.0839
  375UDC     C4 4118  17.885   5.178  18.455  0.0576 -0.6157 -0.3387
  375UDC     C5 4119  17.952   5.299  18.530 -0.6539 -0.4352 -0.1549
  375UDC     C6 4120  17.870   5.424  18.555  0.1389  0.0716 -0.2741
  375UDC     C7 4121  17.892   5.506  18.684 -0.5150  1.5746  0.0410
  375UDC     C8 4122  17.808   5.636  18.677  0.2356 -0.3032 -0.4510
  375UDC     C9 4123  17.654   5.638  18.696  0.3366  0.4674 -0.1024
  375UDC    C10 4124  17.579   5.765  18.649  0.0341  0.4995 -0.4974
  375UDC    C11 4125  17.428   5.783  18.664 -0.4110  0.3546  0.3441
  376UDC     C1 4126  11.538   9.542   8.920 -0.3363 -0.4377 -0.2539
  376UDC     C2 4127  11.404   9.579   8.994  0.0826 -0.1846 -0.2851
  376UDC     C3 4128  11.347   9.702   8.913  0.3678 -0.1289 -0.2266
  376UDC     C4 4129  11.213   9.687   8.844  0.0245 -0.2781 -0.0522
  376UDC     C5 4130  11.169   9.544   8.784  0.3461 -0.1312 -0.6879
  376UDC     C6 4131  11.022   9.557   8.726 -0.7099  0.3223  1.2663
  376UDC     C7 4132  10.984   9.465   8.611  0.7758  0.4307 -0.3695
  376UDC     C8 4133  10.925   9.540   8.487  0.3237 -0.5275 -0.1779
  376UDC     C9 4134  10.877   9.469   8.362  0.0731 -0.2249 -0.6018
  376UDC    C10 4135  10.798   9.565   8.264 -0.5635  0.4298  0.3263
  376UDC    C11 4136  10.670   9.499   8.210  0.7541 -0.7584  0.2538
  377UDC     C1 4137   7.865   1.182  19.944 -0.7147  0.0529 -0.0180
  377UDC     C2 4138   7.991   1.097  19.982  0.3246  0.5315  0.3699
  377UDC     C3 4139   7.977   0.999  20.097  0.2589  0.6881 -0.6124
  377UDC     C4 4140   7.950   0.850  20.065 -0.5075  0.6568 -0.4643
  377UDC     C5 4141   7.983   0.741  20.165 -0.4305  0.4928 -0.1945
  377UDC     C6 4142   7.885   0.739  20.281 -0.2142 -0.0871  0.6304
  377UDC     C7 4143   7.929   0.668  20.403 -0.7908  0.8863 -0.7666
  377UDC     C8 4144   7.942   0.748  20.538 -1.1238 -0.4619 -0.5632
  377UDC     C9 4145   8.055   0.684  20.630  0.9055 -0.1595 -0.3169
  377UDC    C10 4146   8.105   0.765  20.749  0.4124  0.3188 -0.5318
  377UDC    C11 4147   8.183   0.896  20.705  0.8529  0.6351  0.1344
  378UDC     C1 4148  10.139  13.735   1.052  1.7838 -0.5718 -0.3112
  378UDC     C2 4149  10.114  13.663   0.910  0.2108 -0.2131  0.0821
  378UDC     C3 4150  10.009  13.557   0.910  0.8727  0.9023  0.6300
  378UDC     C4 4151  10.073  13.436   0.988  1.1167  0.5249 -0.0607
  378UDC     C5 4152   9.995  13.341   1.073  1.1517 -0.0588 -0.0185
  378UDC     C6 4153   9.920  13.216   1.015  0.1283  0.4144  0.5628
  378UDC     C7 4154   9.994  13.083   1.026  0.8723  0.0503  0.4205
  378UDC     C8 4155   9.912  12.960   1.022 -0.7490  0.4411 -0.2052
  378UDC     C9 4156   9.990  12.854   0.945  0.5315 -0.7554 -0.3283
  378UDC    C10 4157   9.894  12.759   0.879  0.3653  0.2291  0.3746
  378UDC    C11 4158   9.855  12.640   0.972 -0.9842 -0.1587  0.1211
  379UDC     C1 4159  13.999   4.313   4.755  0.7632 -0.3397  0.3188
  379UDC     C2 4160  14.100   4.296   4.866 -0.0921  0.5496  0.0000
  379UDC     C3 4161  14.210   4.189   4.825 -0.1772 -0.4696  0.5869
  379UDC     C4 4162  14.129   4.057   4.780 -0.8635 -0.4632 -1.0947
  379UDC     C5 4163  14.180   3.951   4.880 -0.2822  0.4530  0.4315
  379UDC     C6 4164  14.310   3.879   4.822 -0.7683  0.4520  0.5534
  379UDC     C7 4165  14.432   3.877   4.919 -0.2038 -0.3302 -0.5795
  379UDC     C8 4166  14.366   3.792   5.033 -0.1513  0.0385  1.3853
  379UDC     C9 4167  14.338   3.648   4.987  1.0134  0.0618 -0.4655
  379UDC    C10 4168  14.261   3.559   5.088  0.7471 -0.0336  0.5867
  379UDC    C11 4169  14.115   3.503   5.078  0.4968 -0.6178  0.4174
  380UDC     C1 4170  11.754   2.511   7.903 -0.2675  0.1843 -0.2737
  380UDC     C2 4171  11.724   2.462   8.042 -0.5066  0.3637  0.4333
  380UDC     C3 4172  11.833   2.362   8.095 -0.5656  0.1635 -0.3177
  380UDC     C4 4173  11.770   2.236   8.170  1.3227 -0.0266  0.1326
  380UDC     C5 4174  11.689   2.281   8.295  0.8884 -0.3782 -0.3394
  380UDC     C6 4175  11.751   2.249   8.431  0.2395  0.3959 -0.0166
  380UDC     C7 4176  11.720   2.112   8.497 -0.1734  0.5176 -0.3784
  380UDC     C8 4177  11.797   2.084   8.621 -0.3100  0.4170 -0.6130
  380UDC     C9 4178  11.751   1.945   8.687  0.9697  0.1684  1.2137
  380UDC    C10 4179  11.595   1.916   8.707 -0.5219 -0.6287 -1.0015
  380UDC    C11 4180  11.527   2.012   8.803  1.2356 -0.6256 -0.8344
  381UDC     C1 4181   7.237  10.263  13.556 -1.3572 -1.0423 -0.6202
  381UDC     C2 4182   7.285  10.374  13.465  0.3238  0.2112  0.1318
  381UDC     C3 4183   7.186  10.437  13.369  0.1170 -0.6526 -0.5336
  381UDC     C4 4184   7.198  10.589  13.386 -0.4965  0.3638  1.3969
  381UDC     C5 4185   7.063  10.667  13.368 -0.6046  0.7798 -0.1942
  381UDC     C6 4186   7.084  10.817  13.376 -1.0067  1.1353  0.2664
  381UDC     C7 4187   7.122  10.875  13.241  0.5221 -0.0219  0.0715
  381UDC     C8 4188   7.007  10.942  13.162 -0.3274  0.2167 -1.0974
  381UDC     C9 4189   7.029  11.005  13.025  0.6807  0.3200 -0.5235
  381UDC    C10 4190   7.127  11.120  13.012  0.6161 -0.1439 -0.0942
  381UDC    C11 4191   7.143  11.173  12.867 -1.4481  0.5445  0.6884
  382UDC     C1 4192   1.553   3.706  14.069 -0.0742 -0.5496 -1.4769
  382UDC     C2 4193   1.693   3.722  14.004  0.0135 -0.6435  0.7379
  382UDC     C3 4194   1.805   3.616  13.976  0.7977 -1.1470 -0.2174
  382UDC     C4 4195   1.921   3.599  14.078  0.2376  0.6129 -0.2885
  382UDC     C5 4196   2.037   3.554  13.986  0.7541 -0.5957 -0.1164
  382UDC     C6 4197   1.998   3.425  13.921  0.0286  0.2677  0.1643
  382UDC     C7 4198   2.115   3.353  13.844 -0.5432 -0.4613 -0.8901
  382UDC     C8 4199   2.075   3.229  13.763 -0.3002 -0.5105 -1.3553
  382UDC     C9 4200   2.204   3.188  13.704 -0.3215  0.4077  0.2269
  382UDC    C10 4201   2.195   3.160  13.551  0.2251  0.0961 -0.6415
  382UDC    C11 4202   2.072   3.069  13.505 -0.0612 -0.2350 -0.1352
  383UDC     C1 4203  14.912   5.831  15.958  0.2942  0.0977 -0.7714
  383UDC     C2 4204  14.851   5.776  16.091 -0.9809  1.2007  0.0755
  383UDC     C3 4205  14.944   5.679  16.168  0.8518 -1.4377 -0.4648
  383UDC     C4 4206  14.867   5.639  16.295  0.3171  0.0434 -0.1272
  383UDC     C5 4207  14.924   5.503  16.327  0.2632 -0.5618 -0.4097
  383UDC     C6 4208  15.073   5.510  16.380  0.5012 -1.1216 -0.4514
  383UDC     C7 4209  15.100   5.623  16.481  0.5114 -0.3672 -0.4190
  383UDC     C8 4210  15.235   5.639  16.544 -0.5350  0.0259 -0.6258
  383UDC     C9 4211  15.268   5.774  16.615 -0.1399  1.1150  0.1809
  383UDC    C10 4212  15.424   5.793  16.639  0.3343  0.5804  0.2309
  383UDC    C11 4213  15.460   5.923  16.713 -0.1980  0.4854 -0.1426
  384UDC     C1 4214  10.501   6.401  13.232 -1.0986 -0.4155 -0.3574
  384UDC     C2 4215  10.568   6.253  13.221  0.9667 -1.0721 -0.4275
  384UDC     C3 4216  10.455   6.156  13.246 -0.1437  0.1080 -0.7796
  384UDC     C4 4217  10.506   6.013  13.275 -0.6221 -0.6312  0.4746
  384UDC     C5 4218  10.406   5.892  13.258 -1.1893 -0.8624  0.6470
  384UDC     C6 4219  10.465   5.747  13.255  1.0860  0.2617 -0.5648
  384UDC     C7 4220  10.568   5.720  13.139  1.2684  0.0774 -0.4306
  384UDC     C8 4221  10.519   5.757  12.999  0.3525  0.2033  0.1381
  384UDC     C9 4222  10.597   5.668  12.904  0.4649 -1.2528  0.8524
  384UDC    C10 4223  10.556   5.657  12.758 -0.2758 -0.8112 -0.0249
  384UDC    C11 4224  10.674   5.598  12.688  0.1567 -0.2656 -0.2728
  385UDC     C1 4225  10.258  13.302   6.697 -0.2550  0.5876 -0.2389
  385UDC     C2 4226  10.146  13.337   6.593  0.5790  1.3235 -0.1047
  385UDC     C3 4227  10.204  13.403   6.473 -0.0583 -0.1757  0.2905
  385UDC     C4 4228  10.097  13.434   6.366 -0.2101 -0.3863 -0.3499
  385UDC     C5 4229   9.996  13.316   6.338  0.2468  0.2062  0.1609
  385UDC     C6 4230  10.054  13.205   6.244 -0.4296  0.0590  0.2341
  385UDC     C7 4231  10.144  13.095   6.304 -0.6399 -0.6275 -0.2178
  385UDC     C8 4232  10.196  12.988   6.209  0.1813  0.9873  0.1464
  385UDC     C9 4233  10.263  12.860   6.266  0.7956 -0.1118  1.5047
  385UDC    C10 4234  10.158  12.793   6.362 -0.7414  0.2483  0.5949
  385UDC    C11 4235  10.029  12.749   6.287  0.1368 -1.5985 -0.2571
  386UDC     C1 4236   2.732  11.359   1.532  0.6582 -0.7910  1.2003
  386UDC     C2 4237   2.670  11.458   1.437 -1.7369 -0.6454  0.2242
  386UDC     C3 4238   2.776  11.482   1.335  0.4750 -0.2401  1.0493
  386UDC     C4 4239   2.760  11.589   1.228  0.2717 -0.1120 -0.0179
  386UDC     C5 4240   2.872  11.627   1.136 -0.8938 -0.6890  0.5292
  386UDC     C6 4241   3.013  11.639   1.195 -0.4249 -0.9579  0.0584
  386UDC     C7 4242   3.102  11.735   1.111  0.8456 -1.0153 -0.6510
  386UDC     C8 4243   3.032  11.870   1.069 -1.2087  0.1535 -0.9512
  386UDC     C9 4244   3.113  11.980   1.017  0.2275 -1.3170  1.5687
  386UDC    C10 4245   3.225  11.996   1.119 -0.4037 -0.1389  1.6682
  386UDC    C11 4246   3.203  12.058   1.257  0.6741  1.3890 -0.3238
  387UDC     C1 4247   9.757   8.063   9.278  0.3292  0.4547 -0.2233
  387UDC     C2 4248   9.884   7.988   9.246  0.8429  0.0516  0.7408
  387UDC     C3 4249   9.894   7.859   9.335 -1.0164 -0.3799 -0.2302
  387UDC     C4 4250   9.850   7.871   9.484  0.3116 -0.0128  1.4935
  387UDC     C5 4251   9.728   7.780   9.489 -0.0224 -0.4386  1.0971
  387UDC     C6 4252   9.780   7.658   9.416  0.0822  0.0740 -0.3478
  387UDC     C7 4253   9.706   7.516   9.428  0.6291  0.4233  0.2392
  387UDC     C8 4254   9.571   7.544   9.348 -0.1193 -0.9789 -0.0643
  387UDC     C9 4255   9.503   7.404   9.335  0.2208  0.9798  0.5750
  387UDC    C10 4256   9.542   7.324   9.454  0.3984 -0.9773  0.9877
  387UDC    C11 4257   9.428   7.244   9.530 -0.7853 -0.3358  1.7996
  388UDC     C1 4258   8.155  10.108  10.805  0.5233  0.5177 -0.5303
  388UDC     C2 4259   8.209  10.170  10.935 -0.3347 -0.8752 -0.4609
  388UDC     C3 4260   8.357  10.176  10.943 -0.2193 -0.0888  0.1602
  388UDC     C4 4261   8.409  10.196  10.800 -0.6144  0.1557 -1.1192
  388UDC     C5 4262   8.559  10.169  10.815  0.4629 -0.3033  1.0717
  388UDC     C6 4263   8.586  10.069  10.922 -0.5081  0.0342  0.4378
  388UDC     C7 4264   8.707   9.970  10.917 -0.0387  0.4830 -0.0720
  388UDC     C8 4265   8.835  10.048  10.890  0.6538 -0.2377 -0.4210
  388UDC     C9 4266   8.944   9.956  10.831 -0.8280  0.8358 -0.1990
  388UDC    C10 4267   8.880   9.888  10.708 -0.7879  0.5828 -0.4037
  388UDC    C11 4268   8.900   9.931  10.561  1.0264 -0.2514  0.0959
  389UDC     C1 4269  13.783  10.863  18.204  0.8019  0.7316  0.0955
  389UDC     C2 4270  13.817  10.914  18.351 -0.1171  0.2323 -0.3291
  389UDC     C3 4271  13.696  10.977  18.419 -0.6160 -1.1977 -0.9981
  389UDC     C4 4272  13.657  11.113  18.366 -0.7758 -0.1501  0.3387
  389UDC     C5 4273  13.753  11.231  18.383  1.0734 -0.7668 -0.0629
  389UDC     C6 4274  13.674  11.361  18.409 -0.7634  1.2274 -0.1268
  389UDC     C7 4275  13.654  11.349  18.553  0.3335  0.2802  0.4333
  389UDC     C8 4276  13.573  11.470  18.608  0.9635  0.4423 -0.4066
  389UDC     C9 4277  13.570  11.456  18.760  0.4958  0.1173  1.3036
  389UDC    C10 4278  13.482  11.556  18.832 -0.5211  1.2063 -0.5488
  389UDC    C11 4279  13.476  11.554  18.987  0.5928  0.8729 -0.4730
  390UDC     C1 4280  11.051   8.209   8.934  0.3935  0.0269 -0.2541
  390UDC     C2 4281  11.197   8.240   8.980 -0.1848  0.7327  0.8262
  390UDC     C3 4282  11.239   8.363   8.905 -0.5085 -0.6448  0.1092
  390UDC     C4 4283  11.338   8.447   8.975  0.0173 -0.2304 -0.2698
  390UDC     C5 4284  11.285   8.543   9.096 -0.1894 -0.8521  0.1451
  390UDC     C6 4285  11.156   8.619   9.066 -0.4181 -0.5846 -0.0083
  390UDC     C7 4286  11.096   8.669   9.202  0.2731  0.1733 -0.5009
  390UDC     C8 4287  10.972   8.762   9.188 -1.3190  0.3990  0.0893
  390UDC     C9 4288  10.835   8.685   9.169 -1.8555 -1.1815 -0.3158
  390UDC    C10 4289  10.719   8.787   9.145 -0.6088  0.2549 -0.6455
  390UDC    C11 4290  10.739   8.892   9.030 -0.6749  1.2158 -0.3760
  391UDC     C1 4291   8.691   3.778   9.863  0.2258 -1.4211  0.1438
  391UDC     C2 4292   8.648   3.660   9.938 -0.1093  0.2643 -0.3062
  391UDC     C3 4293   8.729   3.533   9.945 -0.3069  0.0374  0.4365
  391UDC     C4 4294   8.648   3.427  10.006  0.4411  1.2427  0.7764
  391UDC     C5 4295   8.603   3.454  10.151  0.1608  0.0138  0.7511
  391UDC     C6 4296   8.450   3.452  10.166  0.1454 -1.9636  1.0279
  391UDC     C7 4297   8.376   3.538  10.273 -0.3732 -0.4405  0.2672
  391UDC     C8 4298   8.392   3.488  10.419  0.1093 -1.3853  0.1845
  391UDC     C9 4299   8.315   3.575  10.520 -0.4393 -1.0293 -0.0226
  391UDC    C10 4300   8.431   3.659  10.570  0.2252  1.1675  0.8900
  391UDC    C11 4301   8.399   3.773  10.665  0.6309 -0.0960  0.0703
  392UDC     C1 4302   1.165  18.186   5.168 -1.1365  0.7235 -0.0902
  392UDC     C2 4303   1.045  18.238   5.087  0.0671  0.5825  0.2780
  392UDC     C3 4304   1.035  18.387   5.094 -0.0696  0.1286 -0.5917
  392UDC     C4 4305   0.897  18.445   5.070 -0.1615  0.0829 -0.0647
  392UDC     C5 4306   0.792  18.430   5.174  0.5966  0.4306 -0.4966
  392UDC     C6 4307   0.659  18.483   5.127  0.0105 -0.3784  0.1790
  392UDC     C7 4308   0.657  18.625   5.074 -0.1546 -0.4253  1.4620
  392UDC     C8 4309   0.532  18.648   4.991  0.5392 -0.3702  0.6970
  392UDC     C9 4310   0.477  18.788   5.015 -0.1142  0.7451  0.6557
  392UDC    C10 4311   0.328  18.800   4.982 -1.4935 -0.7351  0.4501
  392UDC    C11 4312   0.277  18.944   5.010  0.0787  0.8511 -0.4370
  393UDC     C1 4313   4.043  18.048  12.054 -0.7392 -0.3520  0.9079
  393UDC     C2 4314   4.117  18.177  12.067 -0.4846 -1.0757 -0.5485
  393UDC     C3 4315   4.061  18.269  12.178  0.6282 -0.0407 -0.5458
  393UDC     C4 4316   4.147  18.394  12.201 -0.8721 -0.0182 -1.7902
  393UDC     C5 4317   4.133  18.470  12.340  0.4358  0.4776 -0.0241
  393UDC     C6 4318   3.987  18.487  12.381  0.2572 -0.5770  0.7653
  393UDC     C7 4319   3.905  18.560  12.278  0.2230 -0.4337 -0.1357
  393UDC     C8 4320   3.783  18.631  12.340  0.2752 -0.2569  0.1378
  393UDC     C9 4321   3.686  18.685  12.230  0.0683  0.3016 -0.7634
  393UDC    C10 4322   3.574  18.774  12.282 -0.6608 -0.2254  0.4130
  393UDC    C11 4323   3.507  18.858  12.174  1.0636  0.7419  0.9594
  394UDC     C1 4324  19.666  15.078  18.001  0.9529  0.4286 -1.1657
  394UDC     C2 4325  19.760  15.186  18.023  0.1635  0.0716  0.4050
  394UDC     C3 4326  19.716  15.325  17.971 -0.1741 -0.4837 -1.3220
  394UDC     C4 4327  19.656  15.344  17.836 -1.4017  0.2330  0.2951
  394UDC     C5 4328  19.627  15.489  17.802  0.1741  0.4995  0.4971
  394UDC     C6 4329  19.528  15.491  17.688  0.2581  0.3878  0.0847
  394UDC     C7 4330  19.513  15.638  17.645 -0.4059 -0.0060 -0.6135
  394UDC     C8 4331  19.429  15.679  17.528  0.2429  0.4544  0.2516
  394UDC     C9 4332  19.396  15.833  17.504 -0.7126  0.4616  0.7083
  394UDC    C10 4333  19.260  15.896  17.546 -0.0146  0.2534  0.6257
  394UDC    C11 4334  19.266  15.917  17.697 -0.1600 -1.0036 -0.5948
  395UDC     C1 4335   8.940  14.557  19.238 -0.7239 -0.0751  0.1069
  395UDC     C2 4336   8.994  14.685  19.173  0.0784  0.5842  0.9021
  395UDC     C3 4337   8.979  14.704  19.026 -0.7748 -0.5439 -0.6788
  395UDC     C4 4338   9.025  14.834  18.951 -0.4150 -0.0798 -0.1023
  395UDC     C5 4339   8.921  14.880  18.845  0.7748 -0.6252 -0.1976
  395UDC     C6 4340   8.857  14.781  18.747 -0.0567 -0.6655 -0.4322
  395UDC     C7 4341   8.711  14.739  18.808 -1.2245  0.2123  0.5417
  395UDC     C8 4342   8.640  14.656  18.695  0.7106  1.3907 -0.8032
  395UDC     C9 4343   8.504  14.598  18.730  0.1357  0.1036 -1.3003
  395UDC    C10 4344   8.517  14.446  18.777 -0.0395  1.0425  0.4644
  395UDC    C11 4345   8.548  14.347  18.663 -0.2238  1.0522  0.4068
  396UDC     C1 4346  14.566   9.142   6.844  0.7979  0.7289  0.2005
  396UDC     C2 4347  14.533   9.028   6.740 -0.3626  0.6200  0.4121
  396UDC     C3 4348  14.459   9.074   6.612  0.4958  0.2651 -1.2699
  396UDC     C4 4349  14.331   8.998   6.587  0.2208  0.1883 -0.2278
  396UDC     C5 4350  14.247   9.062   6.475  0.6499 -0.9165 -1.0474
  396UDC     C6 4351  14.308   9.062   6.336  0.1047  0.1314  0.9165
  396UDC     C7 4352  14.215   9.000   6.231  0.7425 -0.2674  0.0101
  396UDC     C8 4353  14.293   8.987   6.099  0.0023  0.4188  0.0322
  396UDC     C9 4354  14.208   8.953   5.975  0.5893 -0.1117 -0.9899
  396UDC    C10 4355  14.109   8.842   6.009  0.3039  0.5602 -0.0478
  396UDC    C11 4356  14.043   8.777   5.879 -0.3899  0.3166 -0.6867
  397UDC     C1 4357   4.918  11.643  12.235  0.2404 -0.0131 -0.1978
  397UDC     C2 4358   5.049  11.555  12.212 -0.2462 -1.1875 -0.2549
  397UDC     C3 4359   5.053  11.455  12.096  0.8484 -0.2200 -0.6511
  397UDC     C4 4360   5.187  11.386  12.089 -0.4258 -0.3140  0.0187
  397UDC     C5 4361   5.301  11.459  12.014  0.3226  1.3690  0.4342
  397UDC     C6 4362   5.453  11.427  12.016  0.9980  0.1869 -0.9625
  397UDC     C7 4363   5.537  11.546  11.962 -1.0355 -0.5123 -0.0045
  397UDC     C8 4364   5.676  11.507  11.900  0.9819  0.0473  0.3449
  397UDC     C9 4365   5.752  11.439  12.013  0.3941  1.2257  0.4746
  397UDC    C10 4366   5.848  11.528  12.086 -0.4043 -0.1093 -0.0533
  397UDC    C11 4367   5.966  11.454  12.151  0.7322 -0.6634 -0.0154
  398UDC     C1 4368   4.320  17.085  13.879  0.1429  0.0833  0.2598
  398UDC     C2 4369   4.402  16.954  13.866  0.2373 -0.4860  0.0609
  398UDC     C3 4370   4.411  16.880  13.729  0.3260  0.6660 -0.1063
  398UDC     C4 4371   4.426  16.965  13.606 -0.5900  0.8241  0.4751
  398UDC     C5 4372   4.504  16.897  13.483  0.5394 -0.9505 -0.3099
  398UDC     C6 4373   4.429  16.788  13.398 -1.0286 -0.5333 -0.0595
  398UDC     C7 4374   4.343  16.847  13.283 -0.1786 -0.3390 -1.1535
  398UDC     C8 4375   4.198  16.883  13.317 -0.7699  1.0045 -0.2145
  398UDC     C9 4376   4.154  16.783  13.418  0.0354  0.6870  0.2578
  398UDC    C10 4377   4.029  16.838  13.496 -0.6214  0.6492  0.0546
  398UDC    C11 4378   3.981  16.780  13.628 -0.4919  0.4510 -0.7973
  399UDC     C1 4379  19.107   2.400  19.205  0.5262  0.2819  0.4285
  399UDC     C2 4380  19.244   2.460  19.163 -0.0560 -0.4366  0.6917
  399UDC     C3 4381  19.253   2.542  19.031 -0.0633 -0.4991 -0.9103
  399UDC     C4 4382  19.373   2.646  19.001 -0.0149 -0.8887 -0.1985
  399UDC     C5 4383  19.521   2.601  19.007  0.7867  0.1606 -0.4629
  399UDC     C6 4384  19.621   2.711  18.974  0.8179  0.8392 -0.2670
  399UDC     C7 4385  19.755   2.696  19.041  0.3592 -0.5562  0.1184
  399UDC     C8 4386  19.850   2.811  19.006  0.6142 -0.5859  0.1439
  399UDC     C9 4387  19.956   2.853  19.105  1.0127 -0.3559 -1.4971
  399UDC    C10 4388  20.084   2.933  19.070  0.0107 -0.0818 -0.0842
  399UDC    C11 4389  20.185   2.933  19.192 -1.5646 -0.0295 -0.4768
  400UDC     C1 4390  10.228  13.578   0.456  0.4461  0.8043 -0.1155
  400UDC     C2 4391  10.229  13.693   0.359 -0.5912  0.3303  0.8272
  400UDC     C3 4392  10.362  13.688   0.279 -0.7518  0.2815  0.2617
  400UDC     C4 4393  10.443  13.810   0.248 -0.7614 -0.5090  0.4725
  400UDC     C5 4394  10.470  13.905   0.371  0.7579  1.0742 -0.0256
  400UDC     C6 4395  10.552  14.024   0.314 -0.1134 -0.2731 -0.9040
  400UDC     C7 4396  10.565  14.156   0.398 -0.4061  0.3577  0.8396
  400UDC     C8 4397  10.679  14.160   0.504  0.4228  0.6438  0.1494
  400UDC     C9 4398  10.784  14.268   0.489 -1.0745  0.6202 -0.1229
  400UDC    C10 4399  10.892  14.241   0.595  0.0320  0.6202 -1.1152
  400UDC    C11 4400  10.852  14.268   0.741  0.4013 -0.2252  0.8243
  401UDC     C1 4401   0.687  19.247   1.234 -0.2258 -0.4765  0.5156
  401UDC     C2 4402   0.657  19.305   1.370 -1.6064 -1.6498 -1.0717
  401UDC     C3 4403   0.757  19.275   1.480 -0.1681  0.0973  0.1189
  401UDC     C4 4404   0.690  19.318   1.611  0.5454 -1.2787 -0.9762
  401UDC     C5 4405   0.786  19.331   1.728 -0.1572  0.9639 -0.7762
  401UDC     C6 4406   0.842  19.194   1.776 -0.4072 -0.6181  0.0091
  401UDC     C7 4407   0.961  19.209   1.873  0.5961  0.0055 -0.4140
  401UDC     C8 4408   0.983  19.346   1.934  0.6943 -0.5602 -0.3960
  401UDC     C9 4409   1.090  19.334   2.043  0.2267  0.2006 -0.0354
  401UDC    C10 4410   1.124  19.453   2.143 -0.3420 -0.7082  0.8502
  401UDC    C11 4411   1.271  19.453   2.202  0.3144  0.5604  0.2207
  402UDC     C1 4412  12.495  16.228   8.737 -0.0395  0.8901  0.1293
  402UDC     C2 4413  12.457  16.273   8.877 -0.2589 -0.1663  0.3014
  402UDC     C3 4414  12.482  16.418   8.918  0.6083 -0.5108 -0.0851
  402UDC     C4 4415  12.461  16.441   9.071  1.2895 -0.2171  0.6089
  402UDC     C5 4416  12.326  16.389   9.108  0.5656  0.0497 -0.3075
  402UDC     C6 4417  12.277  16.408   9.247 -0.3415  0.7294  0.0780
  402UDC     C7 4418  12.138  16.341   9.274 -0.0048  0.3695 -0.0826
  402UDC     C8 4419  12.123  16.194   9.228 -0.2940 -0.0505 -0.1233
  402UDC     C9 4420  12.046  16.112   9.324 -0.5634 -0.3840  0.0243
  402UDC    C10 4421  12.115  15.977   9.352  0.2155 -0.8587 -0.1216
  402UDC    C11 4422  12.048  15.861   9.280  0.2280  0.4487  1.0574
  403UDC     C1 4423  18.249  14.933  18.866  0.1379 -0.1223  1.1475
  403UDC     C2 4424  18.337  15.056  18.821  0.2617  0.0673 -0.1982
  403UDC     C3 4425  18.380  15.165  18.923  0.1105  0.7043  0.7680
  403UDC     C4 4426  18.485  15.269  18.862  0.8022  0.8330  0.2597
  403UDC     C5 4427  18.596  15.285  18.965 -0.7128  1.2215  0.1377
  403UDC     C6 4428  18.719  15.361  18.909 -0.6970 -0.6259 -0.8260
  403UDC     C7 4429  18.796  15.311  18.789 -0.0629 -0.0807  0.9666
  403UDC     C8 4430  18.898  15.413  18.731 -0.1554  0.9407  0.3137
  403UDC     C9 4431  18.830  15.456  18.592 -0.5929 -0.5129  0.8264
  403UDC    C10 4432  18.887  15.374  18.468 -0.4483 -0.4541  0.8690
  403UDC    C11 4433  19.031  15.400  18.421  0.0698  0.0850 -0.7863
  404UDC     C1 4434  16.057   5.024   3.849  0.1010 -0.4596  0.3887
  404UDC     C2 4435  16.023   4.880   3.803  0.8782 -0.7128 -0.0689
  404UDC     C3 4436  16.069   4.779   3.896 -0.6791  0.2708  0.2836
  404UDC     C4 4437  16.032   4.815   4.041  0.5203 -0.6879 -0.7529
  404UDC     C5 4438  16.051   4.711   4.157 -1.1298 -0.5765  1.2212
  404UDC     C6 4439  15.939   4.609   4.160  0.7943 -0.4922 -0.0012
  404UDC     C7 4440  15.909   4.585   4.316 -0.5894  0.4108  0.3213
  404UDC     C8 4441  15.835   4.455   4.329  0.4683  0.2582 -0.5616
  404UDC     C9 4442  15.925   4.350   4.398 -1.2775  0.3995  0.5935
  404UDC    C10 4443  15.876   4.215   4.461  0.0911  0.7377 -0.4094
  404UDC    C11 4444  15.806   4.118   4.362  0.5647 -0.1510  0.7747
  405UDC     C1 4445   6.461  11.480   2.287 -0.6042  0.8913 -0.1605
  405UDC     C2 4446   6.550  11.601   2.299  0.5086 -0.7202 -0.9135
  405UDC     C3 4447   6.634  11.596   2.419  0.3189  0.0382 -0.4747
  405UDC     C4 4448   6.561  11.650   2.542 -0.5613  0.3960  0.2509
  405UDC     C5 4449   6.543  11.795   2.566 -0.3096  0.2073 -0.1810
  405UDC     C6 4450   6.440  11.814   2.689  0.2472 -0.9310  0.5595
  405UDC     C7 4451   6.292  11.793   2.668  1.1993 -0.3499  0.3132
  405UDC     C8 4452   6.207  11.826   2.798  0.1972  0.6270 -0.0379
  405UDC     C9 4453   6.181  11.717   2.898  1.7023 -0.1200 -0.5186
  405UDC    C10 4454   6.120  11.768   3.027 -0.2291 -0.4205 -0.1514
  405UDC    C11 4455   6.232  11.850   3.087  0.1748 -0.2829  0.3370
  406UDC     C1 4456  14.385  11.589   2.316  0.5283  1.0854 -0.3389
  406UDC     C2 4457  14.476  11.582   2.189 -1.0267  0.4865 -0.6585
  406UDC     C3 4458  14.616  11.609   2.227 -1.7245 -0.1969 -0.3017
  406UDC     C4 4459  14.705  11.527   2.130  0.3754  0.3359  0.1335
  406UDC     C5 4460  14.676  11.547   1.974  0.4772 -0.2604  0.0029
  406UDC     C6 4461  14.718  11.444   1.867  0.8361 -0.3123  0.2813
  406UDC     C7 4462  14.629  11.430   1.741  1.3114  0.1863  0.0755
  406UDC     C8 4463  14.560  11.298   1.719 -0.0696 -0.3186 -0.5744
  406UDC     C9 4464  14.610  11.195   1.616  0.6262  1.0973 -0.6862
  406UDC    C10 4465  14.746  11.135   1.632 -0.1245 -0.7079  0.3363
  406UDC    C11 4466  14.727  10.982   1.623  0.6995  0.1621  0.5397
  407UDC     C1 4467   1.151   6.888  19.147  0.2020  0.7199 -0.1348
  407UDC     C2 4468   1.107   6.773  19.238 -0.4839  0.1157  0.3861
  407UDC     C3 4469   1.214   6.659  19.240  0.2664  0.2316  0.2198
  407UDC     C4 4470   1.357   6.708  19.266  0.2846  0.0250  0.7080
  407UDC     C5 4471   1.457   6.600  19.261 -0.5176  0.8480  0.7536
  407UDC     C6 4472   1.430   6.471  19.341 -0.6772  0.1675  0.3043
  407UDC     C7 4473   1.562   6.390  19.368 -0.4708  0.9491 -0.5769
  407UDC     C8 4474   1.516   6.263  19.447  0.6490  0.6633  0.0957
  407UDC     C9 4475   1.405   6.298  19.554 -0.2464 -0.5492  0.8349
  407UDC    C10 4476   1.351   6.167  19.613  0.3168  0.1010 -0.9825
  407UDC    C11 4477   1.251   6.079  19.528  0.6307  0.3391 -0.4011
  408UDC     C1 4478  15.940   4.882  11.772  0.4670  0.3668  1.0101
  408UDC     C2 4479  15.789   4.906  11.784 -0.0103 -0.4255 -0.0960
  408UDC     C3 4480  15.758   5.024  11.883 -0.8330  1.3673 -0.2652
  408UDC     C4 4481  15.742   4.995  12.035  1.1230  0.7262  0.3534
  408UDC     C5 4482  15.864   5.012  12.124 -1.0401  0.4511 -0.3783
  408UDC     C6 4483  15.846   4.946  12.263 -0.7032  0.1124  0.4767
  408UDC     C7 4484  15.925   5.023  12.372 -0.2843 -1.4413 -0.6942
  408UDC     C8 4485  15.935   4.972  12.522  0.5645 -0.8262 -0.3300
  408UDC     C9 4486  16.069   4.978  12.594 -0.2678  0.3481  0.3056
  408UDC    C10 4487  16.076   4.942  12.746  1.1494 -0.0983  1.0000
  408UDC    C11 4488  15.972   4.843  12.784 -0.8444 -0.8382  1.1083
  409UDC     C1 4489  19.878  11.556   5.787  0.1466  0.0767 -0.2051
  409UDC     C2 4490  19.755  11.482   5.715 -0.6539  1.0672  0.7807
  409UDC     C3 4491  19.735  11.528   5.572  0.2822  0.1594  0.6229
  409UDC     C4 4492  19.858  11.551   5.484 -0.5848  0.5097  0.5805
  409UDC     C5 4493  19.832  11.643   5.358 -0.6312  0.8046  0.6710
  409UDC     C6 4494  19.729  11.601   5.253  0.4148 -0.4179  0.6462
  409UDC     C7 4495  19.818  11.568   5.135  0.2510 -0.2928  1.0074
  409UDC     C8 4496  19.839  11.416   5.127 -1.0175 -0.0552 -1.2101
  409UDC     C9 4497  19.897  11.361   4.997  0.3368  0.2346 -0.2698
  409UDC    C10 4498  19.929  11.209   5.013  0.4962  0.5181 -0.4292
  409UDC    C11 4499  20.022  11.181   5.127 -0.6634 -0.0058 -0.3452
  410UDC     C1 4500  17.828  13.271  15.477  0.4649 -0.5069 -0.0700
  410UDC     C2 4501  17.688  13.306  15.528  0.1532  1.2028 -0.1456
  410UDC     C3 4502  17.586  13.332  15.421  0.5812  0.5965  0.0082
  410UDC     C4 4503  17.470  13.428  15.463 -1.4277 -0.8563 -0.0862
  410UDC     C5 4504  17.373  13.381  15.568  0.8478  0.2884  0.0906
  410UDC     C6 4505  17.272  13.489  15.613  0.4523 -0.1900  0.3349
  410UDC     C7 4506  17.142  13.433  15.672  0.1177 -0.3606  0.7057
  410UDC     C8 4507  17.079  13.313  15.593 -0.7221 -0.1366 -0.0650
  410UDC     C9 4508  16.948  13.279  15.668 -0.3867 -0.6697 -0.9309
  410UDC    C10 4509  16.850  13.202  15.573 -0.9696 -0.1786 -0.0106
  410UDC    C11 4510  16.899  13.078  15.493 -0.1143  0.2639  0.1438
  411UDC     C1 4511   6.106  14.999   7.145  1.0343 -0.8075 -1.5324
  411UDC     C2 4512   5.981  15.059   7.224 -0.0015  0.7774  1.0073
  411UDC     C3 4513   5.840  15.080   7.149 -0.6667 -0.4035  0.3782
  411UDC     C4 4514   5.847  15.166   7.029 -1.0175 -0.9355  0.7828
  411UDC     C5 4515   5.897  15.309   7.051  0.4862 -1.1813 -0.6510
  411UDC     C6 4516   5.932  15.395   6.935 -0.4589 -0.4064  0.3835
  411UDC     C7 4517   6.076  15.432   6.893  0.4044 -0.0283 -0.1409
  411UDC     C8 4518   6.048  15.502   6.750  0.6097  1.7843 -0.3466
  411UDC     C9 4519   5.932  15.604   6.760 -0.0513 -0.4089  0.5663
  411UDC    C10 4520   5.950  15.735   6.680  0.9594 -0.1566  0.2453
  411UDC    C11 4521   5.841  15.843   6.709 -0.2660  0.4179  0.1096
  412UDC     C1 4522  17.771  18.955   0.536  0.3514 -0.4084  0.3358
  412UDC     C2 4523  17.680  18.902   0.646 -0.0600  0.5223 -0.2593
  412UDC     C3 4524  17.686  18.991   0.775  0.4512  0.9551 -0.5301
  412UDC     C4 4525  17.591  18.950   0.893 -0.2408  1.7529  0.8289
  412UDC     C5 4526  17.594  19.061   1.000  0.0370  0.4261  0.7622
  412UDC     C6 4527  17.539  19.004   1.124  0.3970  0.8470 -0.1990
  412UDC     C7 4528  17.411  18.916   1.109  1.0392 -0.2194 -1.0741
  412UDC     C8 4529  17.278  18.997   1.120  0.1595  0.9627  0.0387
  412UDC     C9 4530  17.154  18.910   1.082 -0.0689 -1.4007  1.4168
  412UDC    C10 4531  17.182  18.842   0.950  0.4228  0.8527  0.8456
  412UDC    C11 4532  17.059  18.759   0.904  0.4561 -1.1685  1.9549
  413UDC     C1 4533  10.697   2.841  11.131 -0.4136  0.5106 -0.2848
  413UDC     C2 4534  10.621   2.743  11.222 -0.5036  0.5555  0.3122
  413UDC     C3 4535  10.473   2.773  11.212  0.1098 -1.0003 -0.5098
  413UDC     C4 4536  10.374   2.658  11.260 -0.9515 -0.6989  0.0131
  413UDC     C5 4537  10.237   2.704  11.225 -0.0042  0.2112 -0.2609
  413UDC     C6 4538  10.202   2.804  11.327  0.2970 -0.2969 -1.4593
  413UDC     C7 4539  10.162   2.730  11.465 -1.6632 -0.4425  0.4610
  413UDC     C8 4540  10.142   2.820  11.593  0.3659  0.2069  0.5463
  413UDC     C9 4541  10.135   2.748  11.731 -0.0277  0.6049  0.1312
  413UDC    C10 4542  10.281   2.729  11.783  0.6231  0.7968  0.1996
  413UDC    C11 4543  10.275   2.689  11.939  1.3477 -0.1134  0.3330
  414UDC     C1 4544  16.235   2.379  16.231  0.4903 -1.0289  0.6796
  414UDC     C2 4545  16.208   2.524  16.185 -0.3794  1.1559 -0.5249
  414UDC     C3 4546  16.111   2.591  16.282  0.0077 -0.1291  0.4987
  414UDC     C4 4547  16.024   2.707  16.229  0.6752 -0.0346  0.9529
  414UDC     C5 4548  16.082   2.846  16.229 -0.5768 -0.1575 -1.0349
  414UDC     C6 4549  16.003   2.958  16.160 -0.7876  0.7222  0.2309
  414UDC     C7 4550  16.064   3.102  16.152 -0.8264 -0.0771  0.3916
  414UDC     C8 4551  15.967   3.217  16.145 -0.4768 -0.3049 -0.4816
  414UDC     C9 4552  16.016   3.365  16.142 -0.7003  0.2555 -1.1149
  414UDC    C10 4553  15.902   3.469  16.171 -0.0035 -0.4560  0.1445
  414UDC    C11 4554  15.768   3.436  16.233 -0.0483  0.1064  0.5676
  415UDC     C1 4555   4.269   4.437   1.445 -0.4096 -0.3789  0.0220
  415UDC     C2 4556   4.289   4.592   1.422  0.7310 -0.5183  0.2337
  415UDC     C3 4557   4.278   4.678   1.549 -0.4799 -0.5595 -0.4393
  415UDC     C4 4558   4.339   4.600   1.669  0.2351 -1.0003 -0.1681
  415UDC     C5 4559   4.489   4.607   1.705  0.0747 -0.1024  0.0335
  415UDC     C6 4560   4.559   4.486   1.778 -0.6612 -0.8714  0.3234
  415UDC     C7 4561   4.548   4.477   1.928 -0.0055 -0.1633  0.2567
  415UDC     C8 4562   4.603   4.336   1.976  0.5066  0.2084  0.0935
  415UDC     C9 4563   4.613   4.304   2.124  0.0882  0.9170  1.2972
  415UDC    C10 4564   4.763   4.302   2.163 -0.1577  0.2216  0.3766
  415UDC    C11 4565   4.837   4.186   2.098 -0.3435  0.8871  0.5479
  416UDC     C1 4566  17.104   7.877   8.551  0.2946 -1.0977 -0.2946
  416UDC     C2 4567  17.194   7.834   8.664 -0.1913 -0.3171 -0.1749
  416UDC     C3 4568  17.306   7.729   8.630 -0.1571 -0.6583  0.1687
  416UDC     C4 4569  17.385   7.727   8.762 -0.6813 -0.1936  0.2047
  416UDC     C5 4570  17.542   7.750   8.747 -0.4743  0.7370 -0.1044
  416UDC     C6 4571  17.617   7.646   8.660 -0.6370  0.8423 -0.8910
  416UDC     C7 4572  17.774   7.656   8.665  1.0015  0.2510 -0.2025
  416UDC     C8 4573  17.866   7.562   8.582 -0.6567 -0.7047 -0.2049
  416UDC     C9 4574  18.014   7.620   8.578  1.3399  0.4058  0.9241
  416UDC    C10 4575  18.089   7.658   8.704  0.2318  1.6833  0.3697
  416UDC    C11 4576  18.236   7.674   8.681 -0.4748  0.6466  0.0124
  417UDC     C1 4577  13.629  18.309  18.618 -0.3205  0.0911 -1.2315
  417UDC     C2 4578  13.706  18.177  18.606  0.5503 -0.8281  0.2940
  417UDC     C3 4579  13.800  18.168  18.488  1.2888  0.4787  0.8540
  417UDC     C4 4580  13.867  18.028  18.472 -0.6876 -0.0417  1.4919
  417UDC     C5 4581  13.760  17.925  18.476  0.8439  1.7456  0.1485
  417UDC     C6 4582  13.702  17.888  18.342 -1.0532 -0.2100 -0.4724
  417UDC     C7 4583  13.595  17.777  18.342 -0.0572 -0.1942 -1.0975
  417UDC     C8 4584  13.656  17.641  18.374 -0.1547 -0.6313 -0.1288
  417UDC     C9 4585  13.583  17.513  18.333 -0.1740  0.4427  0.0252
  417UDC    C10 4586  13.564  17.517  18.183 -0.0047  0.5203  0.2156
  417UDC    C11 4587  13.557  17.375  18.116 -0.2861  0.5322  0.0214
  418UDC     C1 4588  12.807   6.776   3.648  0.0559  0.6150  0.1720
  418UDC     C2 4589  12.675   6.812   3.703 -0.8472  0.7869  0.6913
  418UDC     C3 4590  12.707   6.834   3.852 -0.4272  0.3793  0.1593
  418UDC     C4 4591  12.579   6.881   3.927 -0.6810 -0.1150 -1.0954
  418UDC     C5 4592  12.514   7.009   3.872  0.8613  0.1793  0.0329
  418UDC     C6 4593  12.436   7.089   3.982  0.0819  0.8629 -0.3339
  418UDC     C7 4594  12.533   7.164   4.076 -0.7085  0.0652 -0.0145
  418UDC     C8 4595  12.476   7.230   4.203 -0.9522 -0.4551  0.0713
  418UDC     C9 4596  12.435   7.372   4.166  0.1048 -0.3603  0.3296
  418UDC    C10 4597  12.402   7.465   4.292  1.1360 -0.0797  0.6724
  418UDC    C11 4598  12.340   7.603   4.247 -0.4395 -0.3839 -0.1976
  419UDC     C1 4599  15.783   7.960  16.699  0.1975 -0.8281  0.5710
  419UDC     C2 4600  15.798   7.889  16.834 -0.6314  1.3067  0.0458
  419UDC     C3 4601  15.689   7.776  16.849  1.0393  0.6799  0.7994
  419UDC     C4 4602  15.544   7.845  16.853 -0.3649  0.7239  0.7560
  419UDC     C5 4603  15.522   7.959  16.960 -0.6950  0.5641 -0.0149
  419UDC     C6 4604  15.541   7.919  17.113  0.1827  0.2518  0.7499
  419UDC     C7 4605  15.505   8.034  17.205  0.0476  1.2061 -0.6757
  419UDC     C8 4606  15.362   8.066  17.167 -1.6085  0.9967  0.1934
  419UDC     C9 4607  15.321   8.204  17.233 -0.6288  0.3285  0.1542
  419UDC    C10 4608  15.209   8.297  17.182 -0.2582  0.0731  0.3478
  419UDC    C11 4609  15.114   8.358  17.291 -0.5423  0.1086 -0.2092
  420UDC     C1 4610   3.622   9.867   9.588  0.3216 -0.8611  0.1606
  420UDC     C2 4611   3.665   9.778   9.694  0.0324  0.9748 -0.4072
  420UDC     C3 4612   3.735   9.852   9.806  0.5708 -0.2263  0.0504
  420UDC     C4 4613   3.861   9.943   9.775 -0.2270  0.6699  0.5179
  420UDC     C5 4614   3.890  10.030   9.901 -0.3730 -0.5284  0.2071
  420UDC     C6 4615   4.002  10.139   9.898  1.4728  1.3206  0.1709
  420UDC     C7 4616   4.068  10.203  10.020  0.5502  0.4719  0.3022
  420UDC     C8 4617   4.223  10.190  10.036  1.0514 -0.8559  0.2610
  420UDC     C9 4618   4.317  10.235  10.158  0.5420  0.0175  0.5382
  420UDC    C10 4619   4.458  10.182  10.151 -0.4433  0.5800  0.6632
  420UDC    C11 4620   4.534  10.226  10.023  0.2468  0.5348  0.1149
  421UDC     C1 4621   3.820  10.909  11.531  0.7002  0.0591 -0.2730
  421UDC     C2 4622   3.744  10.977  11.409 -0.6986 -0.0347  0.0929
  421UDC     C3 4623   3.793  11.123  11.385 -0.7670 -0.1416  0.3475
  421UDC     C4 4624   3.690  11.199  11.288  0.0513  0.1537  0.7496
  421UDC     C5 4625   3.743  11.336  11.247  0.0594 -0.0608 -0.4961
  421UDC     C6 4626   3.703  11.380  11.107  0.5881  0.2592  0.4829
  421UDC     C7 4627   3.673  11.265  11.009  0.1614  0.9936  0.7892
  421UDC     C8 4628   3.657  11.310  10.864  0.3627  0.1661 -0.2211
  421UDC     C9 4629   3.789  11.378  10.822  0.0856  0.0482 -0.4542
  421UDC    C10 4630   3.799  11.418  10.675 -0.3005  0.3431  0.7443
  421UDC    C11 4631   3.712  11.544  10.648 -1.0109 -0.5393 -0.0251
  422UDC     C1 4632   4.474  12.733  19.035 -0.4543  0.8868  0.3519
  422UDC     C2 4633   4.585  12.628  19.022  0.2514  0.0038  0.6742
  422UDC     C3 4634   4.673  12.636  19.147  0.4542  0.3723  0.5161
  422UDC     C4 4635   4.771  12.752  19.147 -0.3999  0.1574 -0.0545
  422UDC     C5 4636   4.844  12.765  19.009  0.6153 -0.0125 -0.5239
  422UDC     C6 4637   4.943  12.880  18.988 -0.3107 -0.1763  0.7936
  422UDC     C7 4638   4.976  12.859  18.843 -0.5406  0.8351 -0.7593
  422UDC     C8 4639   4.857  12.807  18.777  1.0668  1.2124  1.6661
  422UDC     C9 4640   4.889  12.779  18.633  0.6291 -0.5455  0.7331
  422UDC    C10 4641   4.787  12.720  18.532 -0.7083 -0.2160 -0.4346
  422UDC    C11 4642   4.711  12.591  18.547  0.0649  0.7880  0.0151
  423UDC     C1 4643  19.470  13.845  18.164  0.0744 -0.2938 -0.2561
  423UDC     C2 4644  19.503  13.747  18.277 -0.0578  0.5746  0.0931
  423UDC     C3 4645  19.535  13.610  18.217 -0.2354  1.6533  0.4668
  423UDC     C4 4646  19.634  13.611  18.098  0.3365 -0.3584  0.4375
  423UDC     C5 4647  19.649  13.480  18.024 -0.3464 -0.1330  0.2962
  423UDC     C6 4648  19.727  13.502  17.889  0.5729  0.8807 -0.3562
  423UDC     C7 4649  19.731  13.372  17.804  0.3180 -0.1294 -0.2041
  423UDC     C8 4650  19.586  13.324  17.786  0.0643 -0.0495  0.2537
  423UDC     C9 4651  19.571  13.186  17.714 -0.2803 -0.4013 -0.3859
  423UDC    C10 4652  19.650  13.173  17.579 -1.1161  0.2196  0.5349
  423UDC    C11 4653  19.639  13.292  17.482 -0.6537  0.6487 -0.6830
  424UDC     C1 4654  14.388   6.840  19.552  0.4367 -0.3789 -0.6780
  424UDC     C2 4655  14.291   6.963  19.576  0.4281  0.3534  0.5615
  424UDC     C3 4656  14.162   6.906  19.650 -0.9877 -0.2053 -0.2356
  424UDC     C4 4657  14.064   7.025  19.663  0.4708 -0.5142 -0.7401
  424UDC     C5 4658  13.925   6.969  19.706 -1.1001  0.4210 -0.2996
  424UDC     C6 4659  13.935   6.894  19.842  0.4972  1.3819  0.0322
  424UDC     C7 4660  13.785   6.866  19.881 -0.9931  0.3505 -0.9016
  424UDC     C8 4661  13.664   6.961  19.854  1.0139 -0.8871 -1.0406
  424UDC     C9 4662  13.618   7.063  19.966 -1.7730  0.7974 -1.0308
  424UDC    C10 4663  13.510   7.032  20.068  0.5521 -0.5029  0.2423
  424UDC    C11 4664  13.564   7.028  20.208 -0.0192 -0.4470 -0.0115
  425UDC     C1 4665   2.339   1.277  18.087  1.4546 -0.4677 -0.2648
  425UDC     C2 4666   2.327   1.132  18.125  0.2792 -0.2395  0.6434
  425UDC     C3 4667   2.270   1.105  18.264  0.0554  0.7732  0.5401
  425UDC     C4 4668   2.127   1.154  18.284  0.5088 -0.2793 -0.6451
  425UDC     C5 4669   2.060   1.120  18.422  0.7593  0.4824  0.3251
  425UDC     C6 4670   2.070   0.972  18.479  0.6069 -0.9610 -0.4117
  425UDC     C7 4671   1.983   0.951  18.605  1.2939  0.0890 -1.2024
  425UDC     C8 4672   2.002   0.805  18.641 -0.3528 -0.0420 -0.0985
  425UDC     C9 4673   1.934   0.713  18.541  0.5315 -1.1820  0.0368
  425UDC    C10 4674   1.806   0.647  18.596 -0.1385  0.1440  0.2371
  425UDC    C11 4675   1.664   0.700  18.579  0.0086  0.4868  0.2617
  426UDC     C1 4676  10.321  10.295  13.910 -0.2678  0.3263 -0.4828
  426UDC     C2 4677  10.427  10.374  13.828  1.1933 -0.7925 -0.3086
  426UDC     C3 4678  10.512  10.278  13.743  0.7703 -0.5978 -0.6572
  426UDC     C4 4679  10.577  10.354  13.625  0.6273 -0.2654  0.1003
  426UDC     C5 4680  10.516  10.333  13.484  0.3438 -0.8583  0.3900
  426UDC     C6 4681  10.629  10.359  13.384  0.0945  0.5616  0.0972
  426UDC     C7 4682  10.743  10.251  13.384 -0.2149  0.1453 -0.1094
  426UDC     C8 4683  10.839  10.278  13.263  0.1239 -0.2032 -0.4430
  426UDC     C9 4684  10.964  10.188  13.239  0.6828  0.7476 -0.2585
  426UDC    C10 4685  11.066  10.200  13.350 -0.2623  0.0893 -1.4056
  426UDC    C11 4686  11.191  10.130  13.295  0.2265  1.4906  0.2446
  427UDC     C1 4687   2.851  14.965  17.462  0.2240  0.8398 -0.3382
  427UDC     C2 4688   2.909  15.014  17.326 -0.2358 -0.3678 -0.3063
  427UDC     C3 4689   2.989  14.896  17.270 -0.4042 -0.3006  0.1675
  427UDC     C4 4690   3.075  14.908  17.139 -0.3155 -0.8690 -0.8867
  427UDC     C5 4691   3.200  15.004  17.121  0.4215  0.9701  0.8005
  427UDC     C6 4692   3.317  14.984  17.224 -0.0620  0.5130  1.0293
  427UDC     C7 4693   3.327  15.089  17.339 -0.0006  0.4527  0.1721
  427UDC     C8 4694   3.390  15.225  17.297 -0.6579 -0.2504 -0.4202
  427UDC     C9 4695   3.533  15.225  17.251 -1.0758  0.7253  0.5411
  427UDC    C10 4696   3.595  15.348  17.180 -0.0952  0.5821 -0.9152
  427UDC    C11 4697   3.596  15.487  17.246 -0.3510 -0.0774 -0.2770
  428UDC     C1 4698  11.589   7.040   9.499 -0.4545 -0.0792  0.2933
  428UDC     C2 4699  11.478   7.118   9.558  0.5517 -1.1834 -0.7444
  428UDC     C3 4700  11.524   7.237   9.643 -1.3979  1.4533  0.4511
  428UDC     C4 4701  11.586   7.353   9.557  0.8130  1.1433 -0.1672
  428UDC     C5 4702  11.660   7.447   9.648  1.0955  0.7236 -0.6738
  428UDC     C6 4703  11.759   7.525   9.563 -0.3846 -0.1882 -0.0723
  428UDC     C7 4704  11.865   7.430   9.508 -0.9058 -0.8434  0.7098
  428UDC     C8 4705  11.974   7.513   9.431 -0.9300 -0.0787 -0.7044
  428UDC     C9 4706  11.919   7.624   9.330 -0.2134  0.3897  0.0519
  428UDC    C10 4707  12.016   7.731   9.278 -1.0338  0.1976 -0.9175
  428UDC    C11 4708  12.150   7.664   9.241  0.7705 -1.1434  0.3246
  429UDC     C1 4709  12.340   4.541  15.680  0.5980  0.0066 -0.4409
  429UDC     C2 4710  12.324   4.585  15.528  0.6338 -1.2185 -0.1794
  429UDC     C3 4711  12.264   4.466  15.439 -0.0556 -0.3710 -0.7550
  429UDC     C4 4712  12.304   4.477  15.289 -0.5682 -0.5209 -1.0266
  429UDC     C5 4713  12.271   4.342  15.218 -0.2790  1.2679 -0.4293
  429UDC     C6 4714  12.390   4.239  15.235  0.3149 -0.5112 -0.0155
  429UDC     C7 4715  12.398   4.121  15.140 -0.0659  0.0452 -0.2930
  429UDC     C8 4716  12.496   4.013  15.191  0.3574  0.3056  0.9653
  429UDC     C9 4717  12.464   3.958  15.337  0.7743 -0.4056  0.2291
  429UDC    C10 4718  12.571   3.851  15.347 -0.2357 -0.4146  0.8003
  429UDC    C11 4719  12.538   3.743  15.457  0.0854  0.9112 -0.0344
  430UDC     C1 4720   6.013  19.031   0.771  0.3178 -0.2547 -0.0324
  430UDC     C2 4721   6.131  19.108   0.823 -0.1442 -0.2786  0.1799
  430UDC     C3 4722   6.086  19.221   0.912  0.4521 -0.9661  0.9163
  430UDC     C4 4723   6.205  19.305   0.968  0.8971  1.1374 -0.3493
  430UDC     C5 4724   6.158  19.368   1.102  0.3470  0.3587  0.6052
  430UDC     C6 4725   6.265  19.437   1.181 -0.2098 -0.3767  0.1251
  430UDC     C7 4726   6.222  19.477   1.326  0.4214  0.3183 -0.3798
  430UDC     C8 4727   6.337  19.558   1.389  0.3977  0.0316 -0.7911
  430UDC     C9 4728   6.351  19.682   1.298  0.0352  0.8458  0.2892
  430UDC    C10 4729   6.228  19.770   1.282  0.0115 -0.0821  1.4284
  430UDC    C11 4730   6.260  19.894   1.203 -0.2313  0.0587  0.5024
  431UDC     C1 4731   0.546   8.573  12.995  0.2830 -0.6195  0.1873
  431UDC     C2 4732   0.413   8.644  12.953 -1.0263 -1.3192 -0.2767
  431UDC     C3 4733   0.274   8.583  12.964 -0.4162 -0.0969  0.5258
  431UDC     C4 4734   0.143   8.653  12.917  0.2233  1.2426 -0.2975
  431UDC     C5 4735   0.131   8.788  12.979  0.3355 -0.3781  1.4279
  431UDC     C6 4736  -0.008   8.852  12.960 -0.2263 -0.0707  0.7575
  431UDC     C7 4737  -0.092   8.800  12.841 -0.8325 -0.7001  0.2049
  431UDC     C8 4738  -0.225   8.874  12.801 -0.7179  0.0599 -0.4089
  431UDC     C9 4739  -0.250   8.850  12.651 -0.4129 -0.2994  0.0945
  431UDC    C10 4740  -0.284   8.708  12.605  0.4897 -0.0068 -0.2148
  431UDC    C11 4741  -0.277   8.687  12.453  0.7447  0.2725 -0.1395
  432UDC     C1 4742  10.738  13.798  16.466 -0.6079  0.5168  0.5883
  432UDC     C2 4743  10.776  13.840  16.610  0.0493  0.1161  0.7978
  432UDC     C3 4744  10.765  13.728  16.711 -0.2414  0.1954 -0.9294
  432UDC     C4 4745  10.799  13.771  16.857  1.0040 -0.7359  0.4857
  432UDC     C5 4746  10.954  13.786  16.884 -0.6216  0.1154 -0.3771
  432UDC     C6 4747  10.998  13.641  16.834 -0.3454  0.3092 -0.7660
  432UDC     C7 4748  11.126  13.590  16.908  0.7742 -0.8580  0.3875
  432UDC     C8 4749  11.182  13.452  16.885  0.0548  0.7561 -0.0634
  432UDC     C9 4750  11.298  13.411  16.977 -0.5297 -0.5877 -0.0495
  432UDC    C10 4751  11.387  13.285  16.938  0.2578 -1.1206  0.3179
  432UDC    C11 4752  11.516  13.303  16.847  0.6338 -0.1102 -0.3053
  433UDC     C1 4753  14.639  15.711  11.433 -0.0428  0.0970  0.1584
  433UDC     C2 4754  14.759  15.768  11.525  0.2942  0.4244  0.3940
  433UDC     C3 4755  14.798  15.898  11.470  0.1119 -0.6890 -0.6818
  433UDC     C4 4756  14.931  15.971  11.493 -0.5650  0.1963 -0.6903
  433UDC     C5 4757  14.959  16.064  11.372  0.0124 -1.0943 -0.0144
  433UDC     C6 4758  15.107  16.063  11.346 -0.5502 -0.4268 -1.3371
  433UDC     C7 4759  15.153  15.937  11.269 -0.6104  0.4172 -0.5787
  433UDC     C8 4760  15.289  15.950  11.202 -0.2415  0.7390  0.5139
  433UDC     C9 4761  15.407  15.894  11.285 -0.7464 -0.7759 -0.0043
  433UDC    C10 4762  15.514  15.811  11.203 -1.2353 -0.1842  1.2045
  433UDC    C11 4763  15.582  15.896  11.084 -0.3291  0.0946  0.8036
  434UDC     C1 4764   8.397   2.567  19.959 -0.0296  0.0518 -0.1690
  434UDC     C2 4765   8.294   2.451  19.941 -0.2254  0.3440 -0.3585
  434UDC     C3 4766   8.338   2.340  19.843 -0.7309  0.0848  0.2042
  434UDC     C4 4767   8.250   2.227  19.785  0.6993  1.3670 -1.1869
  434UDC     C5 4768   8.162   2.242  19.668 -0.7591  0.3457 -0.4267
  434UDC     C6 4769   8.019   2.183  19.683 -0.5943 -0.4226 -1.3423
  434UDC     C7 4770   7.926   2.278  19.763 -0.3269 -0.7994 -1.1327
  434UDC     C8 4771   7.818   2.387  19.721  0.9236  0.3785 -0.9687
  434UDC     C9 4772   7.795   2.474  19.844 -0.1184  0.0080 -0.0247
  434UDC    C10 4773   7.716   2.397  19.946  0.1826 -1.0104  0.8389
  434UDC    C11 4774   7.569   2.389  19.904 -0.2768 -0.0391 -0.7654
  435UDC     C1 4775  13.754  10.834   6.312  0.1611  0.4422 -0.0990
  435UDC     C2 4776  13.717  10.684   6.343  0.8730  0.3643  0.1911
  435UDC     C3 4777  13.772  10.589   6.231 -0.7679  0.5255  0.8473
  435UDC     C4 4778  13.910  10.648   6.176  0.1559  0.4662  1.0400
  435UDC     C5 4779  14.005  10.542   6.121 -0.5446  1.1240  1.0619
  435UDC     C6 4780  14.007  10.516   5.967  0.0309 -0.5747  0.1453
  435UDC     C7 4781  14.087  10.631   5.898 -1.0910  0.8287 -0.2673
  435UDC     C8 4782  14.153  10.599   5.759 -0.7209  0.7041 -0.5051
  435UDC     C9 4783  14.234  10.711   5.716 -1.0782 -1.1412 -0.0362
  435UDC    C10 4784  14.330  10.707   5.595  0.2244 -0.2799 -0.7806
  435UDC    C11 4785  14.455  10.611   5.598  0.0305  0.1716  0.1969
  436UDC     C1 4786  16.247   5.740   0.514  0.3512 -0.8075  0.2253
  436UDC     C2 4787  16.289   5.619   0.424 -0.4900  0.0740  0.4616
  436UDC     C3 4788  16.324   5.655   0.277  0.4947  0.5769  0.0992
  436UDC     C4 4789  16.235   5.742   0.194  0.0516 -0.5174  0.3932
  436UDC     C5 4790  16.182   5.697   0.057 -0.9734 -0.6019 -0.7748
  436UDC     C6 4791  16.115   5.808  -0.026  0.2245 -0.6423 -0.6986
  436UDC     C7 4792  16.064   5.757  -0.160 -0.3673  1.4774 -0.7095
  436UDC     C8 4793  15.981   5.856  -0.236  0.0839 -0.9853 -0.1312
  436UDC     C9 4794  15.943   5.818  -0.383 -0.6331  0.1671 -0.1483
  436UDC    C10 4795  15.794   5.774  -0.410  0.1876  0.4436  0.2323
  436UDC    C11 4796  15.781   5.621  -0.431  0.0366 -0.3924  0.3162
  437UDC     C1 4797   5.981  14.586  17.529  0.1056  0.0100  0.5386
  437UDC     C2 4798   5.982  14.690  17.412  0.2780  1.0683  0.9389
  437UDC     C3 4799   5.962  14.844  17.426 -0.2215 -0.2380 -0.3440
  437UDC     C4 4800   6.002  14.910  17.292 -0.2886 -1.1639 -0.1368
  437UDC     C5 4801   5.903  14.879  17.182  0.2883  0.3218  0.7439
  437UDC     C6 4802   5.935  14.938  17.044  0.7494  0.4678  0.1549
  437UDC     C7 4803   5.841  14.863  16.940  0.0780  0.4528  0.7489
  437UDC     C8 4804   5.716  14.943  16.912  0.0014  0.8035 -1.0518
  437UDC     C9 4805   5.742  15.080  16.854  0.8989 -0.0269  1.2504
  437UDC    C10 4806   5.608  15.145  16.810  0.2517 -0.4408  0.1000
  437UDC    C11 4807   5.522  15.180  16.933  0.4035  0.2738 -0.2126
  438UDC     C1 4808   0.228   9.853   1.421  0.9061 -0.4625 -0.8380
  438UDC     C2 4809   0.231   9.996   1.371  0.8038 -0.8150  0.6972
  438UDC     C3 4810   0.203  10.102   1.483 -0.2976 -0.4785  0.8949
  438UDC     C4 4811   0.056  10.100   1.529 -0.4995 -0.4811  0.9145
  438UDC     C5 4812   0.023  10.135   1.666  0.6448  0.5488 -0.0820
  438UDC     C6 4813   0.016  10.277   1.715 -0.1896  0.2445 -0.0660
  438UDC     C7 4814  -0.069  10.301   1.850  1.0291  0.9547 -0.4118
  438UDC     C8 4815  -0.009  10.386   1.961 -1.5003 -0.2226  0.2464
  438UDC     C9 4816  -0.060  10.359   2.105 -0.4426 -0.3823  0.8035
  438UDC    C10 4817  -0.015  10.236   2.180  0.7741  1.1659 -0.2429
  438UDC    C11 4818   0.105  10.149   2.146 -0.3539 -0.5126 -0.2330
  439UDC     C1 4819  11.694   5.203  14.900 -1.0965 -0.3383  0.7280
  439UDC     C2 4820  11.608   5.090  14.840 -0.0587 -0.3522 -0.3698
  439UDC     C3 4821  11.556   5.124  14.701 -1.4277  0.3178  0.5360
  439UDC     C4 4822  11.494   5.017  14.603  1.0507 -0.8620 -0.1128
  439UDC     C5 4823  11.476   5.060  14.457 -0.4765  0.1487 -0.1948
  439UDC     C6 4824  11.376   5.177  14.460 -1.3554  0.3679  0.7409
  439UDC     C7 4825  11.345   5.222  14.322  0.4008 -0.6056  0.6171
  439UDC     C8 4826  11.456   5.323  14.270 -0.0594  0.2691 -0.7855
  439UDC     C9 4827  11.431   5.451  14.353 -0.1566  0.9133  0.5085
  439UDC    C10 4828  11.551   5.546  14.347 -1.2103  0.2070 -1.1063
  439UDC    C11 4829  11.508   5.673  14.423  0.5785 -0.3275 -0.6155
  440UDC     C1 4830  19.036   2.629   9.875 -0.2430  0.2120 -0.4768
  440UDC     C2 4831  19.144   2.513   9.869  0.5300 -0.7054  0.0237
  440UDC     C3 4832  19.273   2.545   9.802 -0.9519 -0.2855 -0.7588
  440UDC     C4 4833  19.381   2.436   9.807 -0.0864 -0.9218  0.3508
  440UDC     C5 4834  19.341   2.292   9.790  0.7492  0.2289  0.6735
  440UDC     C6 4835  19.458   2.216   9.715 -0.3137  0.0643 -0.2837
  440UDC     C7 4836  19.552   2.124   9.797 -0.4580 -0.8857 -0.1052
  440UDC     C8 4837  19.668   2.194   9.886  0.1259 -0.5520 -1.1624
  440UDC     C9 4838  19.735   2.095   9.985  0.1650 -0.6972  0.4280
  440UDC    C10 4839  19.803   1.977   9.919 -0.3339  0.4204  0.3305
  440UDC    C11 4840  19.892   1.887  10.003 -1.6549 -1.0368  0.6382
  441UDC     C1 4841  11.396  14.001  17.022 -1.0136  1.4891  0.6786
  441UDC     C2 4842  11.330  13.878  17.085  0.5861 -0.4728  0.4680
  441UDC     C3 4843  11.229  13.935  17.193  0.7877  0.8948  1.3077
  441UDC     C4 4844  11.138  13.833  17.273  0.3312  0.3783  0.0431
  441UDC     C5 4845  11.078  13.906  17.397  0.0682  0.4542  0.6822
  441UDC     C6 4846  11.055  14.057  17.399 -0.1109  0.4655  1.3255
  441UDC     C7 4847  11.054  14.122  17.537  1.0197 -0.9049  0.1755
  441UDC     C8 4848  11.059  14.275  17.541  0.4814 -0.0027  0.5866
  441UDC     C9 4849  11.020  14.327  17.688 -0.3026  1.6533  0.8756
  441UDC    C10 4850  10.929  14.224  17.773 -0.7915 -0.7470 -0.1975
  441UDC    C11 4851  10.925  14.260  17.925  0.2607  0.1576 -0.8567
  442UDC     C1 4852   1.547  16.147   5.470  0.0839  0.1795 -0.9224
  442UDC     C2 4853   1.574  16.295   5.451 -0.2283 -0.4405 -0.4244
  442UDC     C3 4854   1.478  16.353   5.347  1.3869 -0.4689  0.7563
  442UDC     C4 4855   1.454  16.508   5.333  0.0311 -0.1738 -0.9811
  442UDC     C5 4856   1.576  16.596   5.283  0.3494  0.6834 -0.4765
  442UDC     C6 4857   1.532  16.740   5.247 -0.2152  1.3108  0.0898
  442UDC     C7 4858   1.650  16.835   5.225 -0.9594 -1.0820 -0.7886
  442UDC     C8 4859   1.746  16.813   5.106  0.3070  0.0764  0.4033
  442UDC     C9 4860   1.814  16.934   5.043  1.4464  0.6733  0.1250
  442UDC    C10 4861   1.950  16.914   4.975 -0.2856 -0.5956  0.1522
  442UDC    C11 4862   2.054  16.884   5.085 -0.9352  0.9163  0.2507
  443UDC     C1 4863  13.638   4.469   8.937 -0.1542  0.0208 -0.5726
  443UDC     C2 4864  13.644   4.422   8.790 -0.2941  0.6942  0.1689
  443UDC     C3 4865  13.527   4.473   8.709  0.4837  0.9133  0.3264
  443UDC     C4 4866  13.519   4.436   8.561  0.0630 -0.3203 -0.9771
  443UDC     C5 4867  13.373   4.399   8.525  0.3712  0.5404  0.9365
  443UDC     C6 4868  13.371   4.307   8.398 -1.1884  0.3730 -0.1367
  443UDC     C7 4869  13.245   4.292   8.325  0.5918  0.1563  0.4640
  443UDC     C8 4870  13.261   4.215   8.193  1.1466  0.8788  0.4809
  443UDC     C9 4871  13.236   4.288   8.061  0.4872  0.7635  0.1856
  443UDC    C10 4872  13.298   4.429   8.046  0.5890  0.7004  0.7732
  443UDC    C11 4873  13.441   4.460   7.997 -0.2061  0.1846 -0.0273
  444UDC     C1 4874   1.517  18.470  13.713 -0.1469  0.2689  0.0194
  444UDC     C2 4875   1.405  18.533  13.623 -0.3488  0.2169  0.4057
  444UDC     C3 4876   1.379  18.690  13.638 -0.2083  0.3107  0.3540
  444UDC     C4 4877   1.498  18.786  13.616  0.8468 -0.2087 -0.7867
  444UDC     C5 4878   1.458  18.939  13.603 -0.3209 -0.5762  0.1381
  444UDC     C6 4879   1.567  19.050  13.585  0.4415  0.0047  0.3549
  444UDC     C7 4880   1.552  19.171  13.682 -0.7509 -0.1909  0.9544
  444UDC     C8 4881   1.411  19.230  13.711 -0.3432  0.1443  0.4053
  444UDC     C9 4882   1.421  19.375  13.763 -0.7234  0.2836 -0.6109
  444UDC    C10 4883   1.449  19.390  13.919 -0.0313  0.0042  0.0289
  444UDC    C11 4884   1.573  19.472  13.968 -0.6048  0.8538  0.4288
  445UDC     C1 4885   5.724  15.458   0.643  0.0141  0.2330  0.6533
  445UDC     C2 4886   5.595  15.503   0.561 -0.2194 -0.0752  0.9960
  445UDC     C3 4887   5.461  15.422   0.587  0.7235 -0.1169 -0.1095
  445UDC     C4 4888   5.407  15.387   0.724 -0.3640 -0.1406  0.8002
  445UDC     C5 4889   5.256  15.350   0.723 -0.3302 -0.2683  0.5065
  445UDC     C6 4890   5.157  15.451   0.801  0.7339 -0.4289 -0.4551
  445UDC     C7 4891   5.193  15.465   0.949  0.7003  0.3063  1.1922
  445UDC     C8 4892   5.105  15.567   1.026 -0.2612  0.9367 -0.3824
  445UDC     C9 4893   4.958  15.515   1.016  0.3801 -0.5096 -0.7443
  445UDC    C10 4894   4.848  15.602   1.090 -0.7412 -0.3301 -0.5001
  445UDC    C11 4895   4.757  15.664   0.984 -0.7425  0.0162  0.0876
  446UDC     C1 4896   0.381   6.567  16.168  0.4509 -0.8620 -0.0611
  446UDC     C2 4897   0.476   6.453  16.147 -0.0025  1.4581 -0.2106
  446UDC     C3 4898   0.419   6.309  16.184  0.0542 -0.6551 -0.3527
  446UDC     C4 4899   0.546   6.232  16.227  0.0138 -0.8647 -0.2582
  446UDC     C5 4900   0.621   6.298  16.338 -0.9047  0.2501 -0.9635
  446UDC     C6 4901   0.606   6.214  16.470  0.3624 -0.4184  0.2142
  446UDC     C7 4902   0.700   6.089  16.489  0.3861 -0.4635 -0.5035
  446UDC     C8 4903   0.854   6.100  16.473 -0.3454 -0.5676  0.1135
  446UDC     C9 4904   0.939   5.996  16.395  0.4574 -0.1674  0.2020
  446UDC    C10 4905   1.080   6.041  16.361 -0.1219 -0.5808 -0.8816
  446UDC    C11 4906   1.129   5.972  16.232  0.5040 -0.3966  0.4612
  447UDC     C1 4907  10.835   7.057  10.340  0.5496  0.2915  0.9418
  447UDC     C2 4908  10.727   6.961  10.288 -0.2217 -0.5826  0.6495
  447UDC     C3 4909  10.764   6.824  10.224 -0.9988  0.4046  0.4634
  447UDC     C4 4910  10.685   6.829  10.092 -0.2428  0.3535  0.5831
  447UDC     C5 4911  10.733   6.729   9.977 -0.1420 -0.5006 -0.6443
  447UDC     C6 4912  10.789   6.602  10.047 -0.4718  0.1694 -0.3508
  447UDC     C7 4913  10.786   6.470   9.974 -0.3647 -0.3896  0.5852
  447UDC     C8 4914  10.648   6.425   9.935 -0.0417 -0.6571  0.0111
  447UDC     C9 4915  10.652   6.281   9.877 -0.1654  0.3024 -0.1027
  447UDC    C10 4916  10.500   6.254   9.889  0.2338 -0.2208 -0.1913
  447UDC    C11 4917  10.433   6.112   9.918  0.1907 -0.4167  0.4202
  448UDC     C1 4918  12.249  14.278   8.224  0.5804 -0.2158 -1.0465
  448UDC     C2 4919  12.385  14.214   8.253  0.1575  0.3044 -0.7020
  448UDC     C3 4920  12.404  14.077   8.189  0.1500 -0.2420 -0.3611
  448UDC     C4 4921  12.292  13.980   8.230  0.0263 -0.5065  0.0529
  448UDC     C5 4922  12.225  13.891   8.122 -0.4692  0.2367 -0.7011
  448UDC     C6 4923  12.190  13.937   7.979 -0.4907 -1.3683 -0.1179
  448UDC     C7 4924  12.124  13.818   7.907  0.4687 -0.3165 -0.3680
  448UDC     C8 4925  11.990  13.849   7.832 -0.8713  0.2593 -0.5961
  448UDC     C9 4926  11.994  13.969   7.735  0.0588 -0.8902 -0.2710
  448UDC    C10 4927  12.056  13.949   7.600 -0.9853  0.5818  0.0179
  448UDC    C11 4928  12.069  14.071   7.508 -0.1240  0.5473  0.6433
  449UDC     C1 4929   5.647   9.244  19.781 -0.8218 -0.1340  0.5966
  449UDC     C2 4930   5.595   9.389  19.759 -1.4157 -0.1818 -0.2508
  449UDC     C3 4931   5.444   9.384  19.747 -0.4303 -1.1456 -1.2073
  449UDC     C4 4932   5.370   9.287  19.664 -0.0798 -1.2936 -0.6380
  449UDC     C5 4933   5.219   9.309  19.676  0.1528  0.6283 -0.5720
  449UDC     C6 4934   5.153   9.205  19.775 -0.4036 -1.0343  0.4415
  449UDC     C7 4935   5.087   9.077  19.720 -0.0906  0.4747 -0.2906
  449UDC     C8 4936   5.084   8.974  19.829  1.0529 -0.1473 -0.5104
  449UDC     C9 4937   5.014   8.847  19.783  0.2466  0.2965  0.2362
  449UDC    C10 4938   4.856   8.860  19.789 -0.2072  1.2390  0.5321
  449UDC    C11 4939   4.772   8.733  19.763  0.2410  0.0196  0.6407
  450UDC     C1 4940   4.596  18.117   6.260 -0.2778 -1.7951  0.1576
  450UDC     C2 4941   4.748  18.131   6.234  0.7381  0.0556  0.4984
  450UDC     C3 4942   4.816  18.220   6.351 -0.0133  0.2154  0.3358
  450UDC     C4 4943   4.961  18.247   6.316 -0.3535 -0.1504 -0.1220
  450UDC     C5 4944   5.063  18.300   6.420  0.6926  0.3043  0.0747
  450UDC     C6 4945   5.040  18.451   6.477 -0.3549 -1.0073 -0.3770
  450UDC     C7 4946   4.916  18.488   6.557  0.4098 -0.8307  0.1820
  450UDC     C8 4947   4.876  18.639   6.565  0.8182  0.0077  0.6397
  450UDC     C9 4948   4.823  18.682   6.421  0.2845  0.7424 -0.8371
  450UDC    C10 4949   4.755  18.824   6.417 -0.0736 -0.0560  1.1396
  450UDC    C11 4950   4.764  18.904   6.280 -0.0244 -1.0441 -0.8688
  451UDC     C1 4951  19.848   1.964  16.105  0.0875 -0.1343  0.5376
  451UDC     C2 4952  19.815   1.814  16.083  0.8350 -1.2249 -0.9729
  451UDC     C3 4953  19.781   1.735  16.211 -0.8481 -0.0397  0.1481
  451UDC     C4 4954  19.827   1.585  16.186 -0.0251  0.7859  0.2489
  451UDC     C5 4955  19.777   1.485  16.293  0.1724  0.3397  0.5944
  451UDC     C6 4956  19.790   1.339  16.241 -0.5261 -1.2811  0.1545
  451UDC     C7 4957  19.687   1.245  16.287  0.5242  0.6231  0.1275
  451UDC     C8 4958  19.692   1.104  16.236 -0.8763 -0.3412 -0.4162
  451UDC     C9 4959  19.568   1.027  16.201 -0.1704 -0.2263  1.2981
  451UDC    C10 4960  19.623   0.904  16.134 -1.1394 -1.0449  0.0885
  451UDC    C11 4961  19.542   0.839  16.018 -0.1623  0.9363 -0.5944
  452UDC     C1 4962   2.471  15.659   2.376  0.6265 -0.5287  0.4515
  452UDC     C2 4963   2.416  15.790   2.434  0.7720  0.9739 -0.6156
  452UDC     C3 4964   2.409  15.881   2.317 -0.2902 -0.9814  0.3655
  452UDC     C4 4965   2.290  15.831   2.242  0.4701 -0.8013 -0.3210
  452UDC     C5 4966   2.218  15.951   2.180 -1.0984  0.2690  0.7105
  452UDC     C6 4967   2.296  16.020   2.068  0.5814  0.1430  0.4986
  452UDC     C7 4968   2.205  16.080   1.968 -0.0322 -0.2964 -0.1545
  452UDC     C8 4969   2.081  15.986   1.957 -1.8376  0.2799  0.3067
  452UDC     C9 4970   2.007  15.982   1.826  0.0748  1.4904  1.2840
  452UDC    C10 4971   2.104  15.944   1.706 -0.4859 -0.2967 -0.6984
  452UDC    C11 4972   2.186  15.816   1.708 -0.2794  0.2920 -0.5779
  453UDC     C1 4973  19.230  11.891   4.476 -0.2293  0.5595  0.1079
  453UDC     C2 4974  19.277  11.748   4.508  0.0289  0.0561  0.2982
  453UDC     C3 4975  19.220  11.629   4.420  0.9999  0.1168  0.4319
  453UDC     C4 4976  19.311  11.531   4.360 -0.4145  0.5776 -0.0656
  453UDC     C5 4977  19.228  11.411   4.293  0.4289 -0.7546 -0.6999
  453UDC     C6 4978  19.121  11.356   4.387  0.1306 -0.0466  0.4824
  453UDC     C7 4979  19.105  11.204   4.345  0.9574 -0.0792 -0.0454
  453UDC     C8 4980  19.056  11.112   4.456 -0.2459 -0.3332 -0.1766
  453UDC     C9 4981  19.067  10.988   4.369 -0.7982  0.3024 -0.0115
  453UDC    C10 4982  18.983  10.864   4.412  0.3512  0.9854 -1.5943
  453UDC    C11 4983  18.975  10.747   4.309  0.6303  0.8201  0.4822
  454UDC     C1 4984  16.116   5.459  17.436  0.7663  0.2323 -0.1865
  454UDC     C2 4985  16.094   5.544  17.565 -0.9330 -0.8401  0.7519
  454UDC     C3 4986  16.169   5.482  17.684  1.2746 -0.8059  0.9638
  454UDC     C4 4987  16.318   5.478  17.695 -0.0567 -0.4150  0.1684
  454UDC     C5 4988  16.379   5.619  17.736  0.4535 -0.2182  0.7644
  454UDC     C6 4989  16.510   5.652  17.668 -0.5712  0.3415 -0.2703
  454UDC     C7 4990  16.630   5.551  17.694  0.1161  0.7886 -0.7537
  454UDC     C8 4991  16.642   5.501  17.842 -0.7190 -0.3067  0.0019
  454UDC     C9 4992  16.756   5.400  17.890 -0.4273  0.6141 -0.7866
  454UDC    C10 4993  16.775   5.389  18.046 -0.1608  0.1017  1.4182
  454UDC    C11 4994  16.881   5.290  18.100 -0.2168 -0.5062  0.0308
  455UDC     C1 4995  18.426   6.162   5.348  0.8614 -0.3910  0.8372
  455UDC     C2 4996  18.436   6.029   5.437  0.2123  0.1787  0.7293
  455UDC     C3 4997  18.505   6.050   5.569  0.1143 -0.5414  0.0859
  455UDC     C4 4998  18.629   5.959   5.570  0.4642  0.0368  0.0579
  455UDC     C5 4999  18.594   5.809   5.559 -0.2470  0.7274  1.4053
  455UDC     C6 5000  18.698   5.706   5.615 -0.1664 -0.8960 -0.8135
  455UDC     C7 5001  18.836   5.703   5.549  0.3034  0.2180  0.6861
  455UDC     C8 5002  18.841   5.569   5.475 -0.3864 -1.0937 -0.0225
  455UDC     C9 5003  18.813   5.579   5.327  0.0522  0.5634  0.1042
  455UDC    C10 5004  18.921   5.636   5.243  0.5908  0.2870  1.9315
  455UDC    C11 5005  19.029   5.560   5.159  0.5983  0.2386  0.2433
  456UDC     C1 5006  19.045   6.243  18.349  1.1295 -0.2635  0.7297
  456UDC     C2 5007  19.156   6.248  18.447 -1.0239 -0.6299  0.8297
  456UDC     C3 5008  19.222   6.115  18.485  0.2177 -0.2113 -0.7331
  456UDC     C4 5009  19.347   6.129  18.566 -0.2432 -0.0329  0.9839
  456UDC     C5 5010  19.332   6.234  18.675  0.4646  0.5014  1.5138
  456UDC     C6 5011  19.248   6.157  18.768 -1.7611  0.0050  0.7385
  456UDC     C7 5012  19.225   6.232  18.899 -0.6169  0.1318 -0.0244
  456UDC     C8 5013  19.093   6.299  18.928  0.0316  0.0581  0.3748
  456UDC     C9 5014  19.070   6.413  18.822  0.2991  0.0168  0.6278
  456UDC    C10 5015  19.081   6.550  18.891  1.3737  0.2178  0.6531
  456UDC    C11 5016  18.997   6.654  18.823  0.0291 -0.5944 -0.0918
  457UDC     C1 5017  19.470  13.031  11.758  0.0459 -0.0505 -0.6479
  457UDC     C2 5018  19.595  12.947  11.703 -0.0740 -0.4596 -0.4961
  457UDC     C3 5019  19.616  12.929  11.551  1.1540 -0.1997 -0.8398
  457UDC     C4 5020  19.499  12.879  11.467 -0.4194  1.5514  0.5849
  457UDC     C5 5021  19.507  12.936  11.319 -1.4139  0.4606  0.3733
  457UDC     C6 5022  19.403  12.887  11.215  0.0564  2.0229 -0.1417
  457UDC     C7 5023  19.257  12.927  11.240  0.6858  0.5007 -0.2485
  457UDC     C8 5024  19.136  12.839  11.192  0.3904 -0.2934 -1.0330
  457UDC     C9 5025  19.054  12.796  11.321  0.1569  0.6709 -0.4289
  457UDC    C10 5026  18.900  12.789  11.291  0.5501  0.9247 -0.3952
  457UDC    C11 5027  18.817  12.712  11.406 -0.0020 -0.3640  0.2487
  458UDC     C1 5028  11.763   5.092   4.188  0.6993  0.4264  0.4317
  458UDC     C2 5029  11.765   5.100   4.341 -0.3220 -0.1651  0.1213
  458UDC     C3 5030  11.752   4.968   4.411  0.6612  0.4686  0.1461
  458UDC     C4 5031  11.842   4.859   4.350 -1.6057  0.2072 -0.1753
  458UDC     C5 5032  11.829   4.719   4.408 -0.2069  0.6217 -0.1682
  458UDC     C6 5033  11.825   4.702   4.565 -0.6234  0.9474 -0.4757
  458UDC     C7 5034  11.700   4.623   4.617  0.8933  0.8152 -0.1555
  458UDC     C8 5035  11.724   4.469   4.605  0.5444  0.1204 -0.5645
  458UDC     C9 5036  11.617   4.374   4.670 -1.0701  0.8570 -0.4534
  458UDC    C10 5037  11.624   4.384   4.827  0.1581  1.0217  0.6772
  458UDC    C11 5038  11.761   4.335   4.880  0.2880  0.9227  0.0164
  459UDC     C1 5039  17.347   9.219   4.822  0.0543  0.5732 -0.4408
  459UDC     C2 5040  17.244   9.326   4.777 -0.6442 -0.2376  0.6140
  459UDC     C3 5041  17.114   9.276   4.727  0.7184  0.5763 -1.0671
  459UDC     C4 5042  17.045   9.380   4.646  0.5148 -0.2692 -0.1253
  459UDC     C5 5043  16.903   9.429   4.691  0.7018  0.9313 -1.4900
  459UDC     C6 5044  16.884   9.586   4.675  0.7208  0.1437  0.3077
  459UDC     C7 5045  17.017   9.658   4.703 -0.4886 -0.2233  0.1881
  459UDC     C8 5046  17.067   9.758   4.589 -1.0987 -0.0564  0.4080
  459UDC     C9 5047  17.201   9.845   4.619  1.3914  0.4038  0.5658
  459UDC    C10 5048  17.233   9.932   4.490  0.1344  0.8253 -0.0912
  459UDC    C11 5049  17.194   9.867   4.351  0.3678  0.4450  0.8844
  460UDC     C1 5050  11.709  12.048  13.105  1.1499  0.2238  0.2696
  460UDC     C2 5051  11.601  12.052  13.214  0.0177 -0.4880  0.2520
  460UDC     C3 5052  11.640  12.143  13.328  0.0526 -0.0857 -1.1343
  460UDC     C4 5053  11.518  12.161  13.409 -0.0763  0.4054  1.0743
  460UDC     C5 5054  11.435  12.032  13.424 -0.1419 -0.3597 -0.1643
  460UDC     C6 5055  11.311  12.035  13.525 -0.1585 -0.6536  0.2507
  460UDC     C7 5056  11.181  12.004  13.451  0.7287 -0.2927  0.4452
  460UDC     C8 5057  11.054  11.993  13.536  1.0665 -0.1335 -0.9062
  460UDC     C9 5058  10.930  12.003  13.445  0.3338  0.1995  0.2004
  460UDC    C10 5059  10.792  12.010  13.510  1.0383 -0.1868 -0.1435
  460UDC    C11 5060  10.704  12.110  13.436 -0.4658 -0.4403  0.0849
  461UDC     C1 5061   5.260  15.976   8.226  0.2993  0.0890 -0.1782
  461UDC     C2 5062   5.312  15.867   8.135  0.2066 -0.1452 -0.0639
  461UDC     C3 5063   5.286  15.904   7.989 -0.5599  0.3945  0.0710
  461UDC     C4 5064   5.137  15.922   7.955 -0.5662  0.0832  0.2439
  461UDC     C5 5065   5.107  15.983   7.815 -0.2868  0.2759 -0.2680
  461UDC     C6 5066   4.974  16.052   7.831 -0.0828 -0.8273  0.5693
  461UDC     C7 5067   4.915  16.140   7.707  0.2066  0.3550 -0.4877
  461UDC     C8 5068   4.944  16.297   7.693 -0.0218  0.6844 -0.5130
  461UDC     C9 5069   4.840  16.404   7.727 -0.2719  0.1711 -0.3587
  461UDC    C10 5070   4.711  16.382   7.645  0.1336 -0.7316 -0.1739
  461UDC    C11 5071   4.592  16.449   7.720  1.1375  0.4892 -0.2094
  462UDC     C1 5072   1.310  18.803  10.862  0.1642  0.6589  0.1810
  462UDC     C2 5073   1.315  18.889  10.991  0.6873  0.0445 -0.0205
  462UDC     C3 5074   1.337  18.786  11.109  1.0138 -0.3911 -0.6230
  462UDC     C4 5075   1.362  18.876  11.233  0.3361 -1.0710  0.1415
  462UDC     C5 5076   1.228  18.926  11.283  1.7075 -0.2326 -0.0812
  462UDC     C6 5077   1.134  18.820  11.308  0.0121 -0.0178  0.6120
  462UDC     C7 5078   1.056  18.839  11.438  0.2036  0.3688  0.7423
  462UDC     C8 5079   0.912  18.818  11.420 -0.4310 -0.1420 -0.5942
  462UDC     C9 5080   0.835  18.872  11.545  0.1624  0.1011 -0.2429
  462UDC    C10 5081   0.749  18.773  11.618  0.6125 -0.0748 -0.0487
  462UDC    C11 5082   0.620  18.765  11.539  0.1494 -0.3618 -0.7843
  463UDC     C1 5083   3.688  15.934  15.876  1.0369  0.5327  0.9568
  463UDC     C2 5084   3.832  15.958  15.830  0.2196 -0.7325  0.0833
  463UDC     C3 5085   3.835  16.033  15.703  1.2874 -0.9332  0.0660
  463UDC     C4 5086   3.725  15.985  15.608  0.5193 -0.4196  0.7143
  463UDC     C5 5087   3.731  15.994  15.452 -0.2963  0.1075 -0.6060
  463UDC     C6 5088   3.724  15.861  15.385  0.4055 -0.3370  0.1428
  463UDC     C7 5089   3.865  15.797  15.365 -0.0237  0.4639 -0.0541
  463UDC     C8 5090   3.858  15.672  15.290 -0.1028  0.0821  0.7166
  463UDC     C9 5091   3.801  15.550  15.364 -0.9883 -0.7590  0.0522
  463UDC    C10 5092   3.883  15.539  15.492  0.0530 -0.1923  0.1075
  463UDC    C11 5093   3.819  15.446  15.599  0.0172 -0.2481 -0.1693
  464UDC     C1 5094   3.627   7.399   1.984 -0.2682 -0.2063  0.3753
  464UDC     C2 5095   3.666   7.405   2.127  0.1471  0.5382  0.7069
  464UDC     C3 5096   3.600   7.289   2.210 -1.3873 -0.9184 -1.2899
  464UDC     C4 5097   3.586   7.336   2.357  0.2349 -0.4783  0.1410
  464UDC     C5 5098   3.720   7.338   2.428  0.7627 -0.6936  0.1485
  464UDC     C6 5099   3.720   7.431   2.553  0.1199  0.9387  0.1672
  464UDC     C7 5100   3.628   7.542   2.527  0.4356 -0.1098  0.5764
  464UDC     C8 5101   3.611   7.642   2.641  0.5973  0.6138 -0.1751
  464UDC     C9 5102   3.479   7.720   2.626 -0.1520  0.3930  0.7283
  464UDC    C10 5103   3.418   7.802   2.739  0.5785  0.6193 -0.9607
  464UDC    C11 5104   3.319   7.710   2.826 -0.3035 -0.9316 -0.5520
  465UDC     C1 5105  11.890   7.195   1.973 -1.0756 -0.7344 -0.1325
  465UDC     C2 5106  11.814   7.077   1.932 -1.0567  0.5050 -0.0494
  465UDC     C3 5107  11.661   7.096   1.928  0.3418 -0.5969  0.4520
  465UDC     C4 5108  11.606   7.230   1.862 -0.5470  0.3069 -0.1648
  465UDC     C5 5109  11.452   7.204   1.837  0.3107  0.0223  1.4328
  465UDC     C6 5110  11.368   7.181   1.962 -0.5942 -0.2117 -0.2448
  465UDC     C7 5111  11.224   7.143   1.931  0.3035  0.3510 -0.7907
  465UDC     C8 5112  11.203   6.990   1.912  1.7703 -0.4547 -0.3910
  465UDC     C9 5113  11.100   6.960   1.807  0.3800  0.5717 -0.1237
  465UDC    C10 5114  10.959   6.931   1.864  0.3506  0.1301 -0.2443
  465UDC    C11 5115  10.914   6.775   1.882 -0.5159 -0.5464  0.1714
  466UDC     C1 5116  15.845   9.311  12.093 -0.4384  0.7112  0.7237
  466UDC     C2 5117  15.870   9.196  12.002 -0.5636 -0.0278  0.2148
  466UDC     C3 5118  15.981   9.223  11.903 -0.5733 -0.3978  0.4580
  466UDC     C4 5119  16.028   9.097  11.835  0.6090  0.9554  0.4800
  466UDC     C5 5120  16.056   8.970  11.923 -0.1406 -0.7954 -0.0121
  466UDC     C6 5121  16.162   8.874  11.875  0.6848 -0.1874 -0.0404
  466UDC     C7 5122  16.210   8.793  12.001  0.9726 -1.0423 -0.7165
  466UDC     C8 5123  16.086   8.721  12.075 -0.0919 -0.0006 -0.2811
  466UDC     C9 5124  16.117   8.631  12.191  0.0167 -1.1469 -0.2777
  466UDC    C10 5125  16.000   8.552  12.252  1.4652  0.3743  0.1538
  466UDC    C11 5126  15.885   8.648  12.300 -1.4287  0.1390 -0.6669
  467UDC     C1 5127   2.059  18.568  18.968 -0.6913 -1.8679 -1.1271
  467UDC     C2 5128   2.164  18.464  18.974  0.1529  0.6791  0.5720
  467UDC     C3 5129   2.127  18.345  18.878  1.5893 -0.1577  0.8545
  467UDC     C4 5130   2.006  18.274  18.927  0.1065  1.0783  0.1018
  467UDC     C5 5131   1.954  18.165  18.832  0.4421  0.0872  0.2787
  467UDC     C6 5132   1.918  18.201  18.690 -0.1430 -0.2971  1.1121
  467UDC     C7 5133   2.033  18.190  18.587 -0.6083 -0.2564  0.7770
  467UDC     C8 5134   2.048  18.282  18.464  0.2806 -1.3226  0.1428
  467UDC     C9 5135   2.175  18.263  18.373 -0.5160 -0.6375  0.3563
  467UDC    C10 5136   2.218  18.382  18.285 -0.5651  0.4978  2.1461
  467UDC    C11 5137   2.290  18.497  18.358 -0.5666 -0.2372 -0.4836
  468UDC     C1 5138   5.929   1.217   0.048 -0.3432 -0.4181 -0.4259
  468UDC     C2 5139   6.067   1.261   0.100 -0.5527  1.3545  0.3518
  468UDC     C3 5140   6.050   1.360   0.217 -0.1054 -0.8239  0.0209
  468UDC     C4 5141   6.161   1.468   0.244 -0.2744 -0.0152 -0.2439
  468UDC     C5 5142   6.184   1.557   0.123  1.1360  0.1077 -0.2882
  468UDC     C6 5143   6.055   1.636   0.087 -1.2017 -1.0256 -1.0158
  468UDC     C7 5144   6.077   1.719  -0.043 -0.6717  1.0558  0.1371
  468UDC     C8 5145   6.111   1.605  -0.146 -0.3565 -0.3578 -0.5790
  468UDC     C9 5146   6.142   1.674  -0.276  0.4139 -0.4932  0.6675
  468UDC    C10 5147   6.221   1.809  -0.268  0.4064 -0.0647  0.0808
  468UDC    C11 5148   6.344   1.778  -0.365  0.2855 -0.5336  0.0359
  469UDC     C1 5149  17.631  19.698  13.033 -0.0800  0.2110  0.3496
  469UDC     C2 5150  17.783  19.680  13.062  0.4258 -0.0778  0.5850
  469UDC     C3 5151  17.828  19.547  13.129 -0.4372 -0.8548 -0.2234
  469UDC     C4 5152  17.762  19.422  13.073 -0.3678 -1.1720 -0.3238
  469UDC     C5 5153  17.760  19.316  13.188  0.2017  0.0176 -1.0319
  469UDC     C6 5154  17.672  19.191  13.169 -0.3717 -0.9147 -0.0611
  469UDC     C7 5155  17.543  19.199  13.255 -0.4606  0.1536 -0.4632
  469UDC     C8 5156  17.575  19.240  13.404  0.3075  0.0842 -0.9849
  469UDC     C9 5157  17.449  19.230  13.486  0.3132  0.7001  0.3208
  469UDC    C10 5158  17.330  19.307  13.425  0.5162  0.2690 -0.1327
  469UDC    C11 5159  17.334  19.454  13.478 -0.6665 -0.5683 -0.0972
  470UDC     C1 5160   9.380  15.900   6.650  0.8031  0.2549  0.0550
  470UDC     C2 5161   9.482  15.917   6.762 -0.0991 -0.3852  1.1422
  470UDC     C3 5162   9.503  16.024   6.870 -0.2371 -0.1771  0.3909
  470UDC     C4 5163   9.653  16.055   6.888  1.0670  0.1380 -0.2558
  470UDC     C5 5164   9.667  16.178   6.970 -0.7530  0.2418  0.2994
  470UDC     C6 5165   9.688  16.129   7.114 -0.2512 -0.9514  0.2831
  470UDC     C7 5166   9.572  16.155   7.213  0.8569  0.4423 -0.3571
  470UDC     C8 5167   9.615  16.169   7.364 -0.4243  0.9194 -0.6969
  470UDC     C9 5168   9.490  16.176   7.464  0.9571  0.3529 -0.4302
  470UDC    C10 5169   9.397  16.054   7.492  0.8613  0.8000 -0.7980
  470UDC    C11 5170   9.257  16.079   7.434  0.3604  1.1063 -1.4859
  471UDC     C1 5171  14.338  10.961  13.723  0.1881  1.0062  0.9372
  471UDC     C2 5172  14.441  11.064  13.677 -0.7560  0.1107  0.5767
  471UDC     C3 5173  14.414  11.100  13.534 -0.1261 -0.0551  0.1156
  471UDC     C4 5174  14.484  11.235  13.488  2.1414 -0.8917  0.2534
  471UDC     C5 5175  14.446  11.298  13.354  0.1970 -0.4977 -0.5738
  471UDC     C6 5176  14.505  11.442  13.341 -0.6294 -0.3215  0.3745
  471UDC     C7 5177  14.448  11.490  13.208  1.3248  0.8389 -1.0065
  471UDC     C8 5178  14.467  11.637  13.179 -1.5274  0.7496  0.1089
  471UDC     C9 5179  14.602  11.654  13.126 -0.1269 -0.0092 -0.9195
  471UDC    C10 5180  14.635  11.800  13.089  0.4959 -0.2289 -0.6483
  471UDC    C11 5181  14.536  11.898  13.028  0.6839 -0.0463  0.9630
  472UDC     C1 5182   6.715  18.250  12.462  0.0278 -1.0904 -0.2769
  472UDC     C2 5183   6.601  18.172  12.402  0.2790  0.1521 -0.5549
  472UDC     C3 5184   6.467  18.211  12.471 -0.9759 -0.0304  0.2299
  472UDC     C4 5185   6.438  18.127  12.601  0.6992 -1.1470 -0.1951
  472UDC     C5 5186   6.378  17.985  12.580 -0.6164 -0.0595 -0.7653
  472UDC     C6 5187   6.270  17.986  12.472 -1.0090  0.3584 -0.6273
  472UDC     C7 5188   6.138  18.059  12.506 -0.4029  0.2284 -0.3626
  472UDC     C8 5189   6.057  18.014  12.629  0.3443  0.8735  0.6223
  472UDC     C9 5190   5.909  18.011  12.589  0.8851  0.3701  0.3693
  472UDC    C10 5191   5.825  17.948  12.699  0.5146 -0.3531  0.0991
  472UDC    C11 5192   5.678  17.979  12.687 -0.3225  0.0886 -0.0241
  473UDC     C1 5193  16.952   0.906   7.451  0.8322  0.2511  0.0591
  473UDC     C2 5194  16.946   0.830   7.580  0.0533  0.4713 -0.9117
  473UDC     C3 5195  17.086   0.814   7.641  0.3067  0.2607  0.0647
  473UDC     C4 5196  17.149   0.935   7.720  0.0319 -0.0035  0.1245
  473UDC     C5 5197  17.291   0.925   7.774 -0.1485  1.0278 -0.7821
  473UDC     C6 5198  17.413   0.990   7.707 -0.0894  0.0330  0.9989
  473UDC     C7 5199  17.544   0.957   7.776 -0.3057  0.1462 -0.5386
  473UDC     C8 5200  17.655   1.005   7.682 -0.0295 -0.8103 -0.6211
  473UDC     C9 5201  17.639   1.160   7.671 -0.7664  1.0563 -0.1822
  473UDC    C10 5202  17.758   1.207   7.586  1.2802  0.9829  0.7674
  473UDC    C11 5203  17.740   1.353   7.567 -0.7780 -1.4695  0.7122
  474UDC     C1 5204   8.236  11.958   7.461 -0.7520  0.0255 -0.4295
  474UDC     C2 5205   8.359  11.857   7.457  0.1772 -0.0700  0.4327
  474UDC     C3 5206   8.464  11.896   7.354  0.1406 -0.5837  0.6942
  474UDC     C4 5207   8.576  11.796   7.352  0.4983  0.3057  0.2064
  474UDC     C5 5208   8.628  11.782   7.498  0.5378 -0.6054  0.6128
  474UDC     C6 5209   8.729  11.884   7.552  0.5676 -0.3546 -0.2399
  474UDC     C7 5210   8.827  11.831   7.669  0.1540  0.0745  0.1251
  474UDC     C8 5211   8.963  11.902   7.712  0.0809  0.2992 -1.0783
  474UDC     C9 5212   9.045  11.830   7.817  0.3247 -0.5186  1.0020
  474UDC    C10 5213   9.063  11.910   7.949 -0.3728  1.3183  0.0766
  474UDC    C11 5214   9.110  11.816   8.059  0.4771  0.1046  0.8506
  475UDC     C1 5215  11.019   8.578  14.192  0.0892 -0.9433  0.1681
  475UDC     C2 5216  11.099   8.568  14.059 -0.0812  1.3019 -0.5449
  475UDC     C3 5217  11.244   8.615  14.069  0.0699  0.6039  0.7693
  475UDC     C4 5218  11.307   8.565  14.204 -0.9230  0.0910 -0.1607
  475UDC     C5 5219  11.442   8.631  14.257  1.2209  0.0346  0.1009
  475UDC     C6 5220  11.559   8.644  14.166 -0.7327 -0.2583  0.2178
  475UDC     C7 5221  11.709   8.636  14.217  0.1935  0.6515  1.1509
  475UDC     C8 5222  11.810   8.688  14.114  1.2222  0.3113 -0.7183
  475UDC     C9 5223  11.793   8.835  14.064  0.1207 -0.4244 -0.5006
  475UDC    C10 5224  11.826   8.873  13.917 -1.4277 -0.5739  0.0476
  475UDC    C11 5225  11.790   9.022  13.888  0.0044 -0.0262 -0.1797
  476UDC     C1 5226   2.173  18.781   6.968  0.1748 -0.1415  0.1661
  476UDC     C2 5227   2.079  18.884   6.903 -1.5065  0.7291  0.5475
  476UDC     C3 5228   1.927  18.872   6.899  0.4361  0.1437  0.2388
  476UDC     C4 5229   1.855  18.964   6.795 -0.2350  1.1069 -0.7911
  476UDC     C5 5230   1.702  18.971   6.806 -0.2082  0.3728  0.5527
  476UDC     C6 5231   1.634  19.070   6.894 -0.4437  0.0753 -0.4943
  476UDC     C7 5232   1.700  19.210   6.864 -0.6711  0.7470 -0.2242
  476UDC     C8 5233   1.640  19.318   6.953 -0.3948  0.2497  0.3564
  476UDC     C9 5234   1.527  19.268   7.041  2.1433 -0.1983 -1.4025
  476UDC    C10 5235   1.418  19.367   7.091  1.1555  0.2019 -1.6271
  476UDC    C11 5236   1.468  19.480   7.192  0.2751  0.5748  0.5241
  477UDC     C1 5237   9.775  14.232  16.800  1.0622 -0.1973 -1.1053
  477UDC     C2 5238   9.750  14.375  16.741 -0.8369 -1.0340 -0.3370
  477UDC     C3 5239   9.835  14.392  16.611  0.5574 -0.4401 -0.2390
  477UDC     C4 5240   9.889  14.539  16.581  0.3921 -0.3087  0.2424
  477UDC     C5 5241   9.982  14.605  16.681  0.6052 -0.9220 -0.3167
  477UDC     C6 5242  10.126  14.551  16.721  0.6311 -0.2138 -0.6709
  477UDC     C7 5243  10.163  14.592  16.862  0.0580 -0.8258 -0.5710
  477UDC     C8 5244  10.298  14.682  16.853  0.5849 -0.0726 -0.9164
  477UDC     C9 5245  10.376  14.691  16.985 -1.5603  0.4243 -1.0955
  477UDC    C10 5246  10.318  14.788  17.083  0.1359 -1.0388 -0.1911
  477UDC    C11 5247  10.393  14.824  17.216  0.1215  0.1160 -0.3756
  478UDC     C1 5248  16.451  18.418   7.685  0.6629  0.3232  0.6399
  478UDC     C2 5249  16.440  18.535   7.781  1.1478  0.2553 -0.2194
  478UDC     C3 5250  16.558  18.633   7.755  1.3055  1.5542 -0.5858
  478UDC     C4 5251  16.492  18.780   7.755  0.2938 -0.0298  0.1485
  478UDC     C5 5252  16.451  18.849   7.885  0.7425 -1.1904 -0.7567
  478UDC     C6 5253  16.383  18.974   7.828  0.0024  0.2702 -1.0217
  478UDC     C7 5254  16.421  19.104   7.885  0.3302  0.4669 -0.2669
  478UDC     C8 5255  16.359  19.125   8.034  0.1503  0.3407  0.2893
  478UDC     C9 5256  16.210  19.165   8.036 -0.3817 -0.1954  0.6683
  478UDC    C10 5257  16.210  19.306   7.978 -0.9241 -0.0541  0.8078
  478UDC    C11 5258  16.102  19.346   7.877  1.1731  0.0721 -1.2108
  479UDC     C1 5259  12.305  11.354  10.452  0.2299  0.3986  0.1507
  479UDC     C2 5260  12.362  11.476  10.528 -0.7719  1.1549 -0.0793
  479UDC     C3 5261  12.452  11.567  10.442  0.4812 -0.3908  0.4019
  479UDC     C4 5262  12.506  11.702  10.497 -0.1939  1.2267 -0.3775
  479UDC     C5 5263  12.633  11.710  10.588  0.3184 -0.2065  0.3454
  479UDC     C6 5264  12.650  11.814  10.693 -0.1086 -1.4775  0.8673
  479UDC     C7 5265  12.530  11.794  10.795  0.5912  0.2716  0.0781
  479UDC     C8 5266  12.558  11.865  10.924 -0.3906  0.7183  0.8623
  479UDC     C9 5267  12.430  11.873  11.003  0.7898 -0.6184 -0.3469
  479UDC    C10 5268  12.362  11.742  11.037 -0.0835 -0.4043 -0.2216
  479UDC    C11 5269  12.227  11.760  11.109 -0.2086  0.0375  0.1215
  480UDC     C1 5270  19.260  13.814   4.575 -0.8431  0.5727  0.3109
  480UDC     C2 5271  19.395  13.889   4.611 -0.3758 -0.7595  0.8329
  480UDC     C3 5272  19.479  13.930   4.490  0.5806  0.4014  0.2815
  480UDC     C4 5273  19.497  13.796   4.410  0.7323 -1.7399 -0.5477
  480UDC     C5 5274  19.544  13.807   4.267  0.4202 -0.1912  1.1027
  480UDC     C6 5275  19.586  13.667   4.199  1.1257  0.9740  0.2369
  480UDC     C7 5276  19.643  13.680   4.051 -0.0597 -0.3461 -0.2509
  480UDC     C8 5277  19.768  13.595   4.023  0.2812  0.1094 -0.8104
  480UDC     C9 5278  19.800  13.570   3.876 -0.0569 -0.1471  0.2404
  480UDC    C10 5279  19.930  13.485   3.866  0.3450  0.6133  0.1492
  480UDC    C11 5280  19.949  13.358   3.948 -0.1417  0.9237  0.5898
  481UDC     C1 5281  19.254   3.808   2.158 -0.6217  1.3190  0.6717
  481UDC     C2 5282  19.318   3.740   2.285  0.7613 -0.2270  0.7123
  481UDC     C3 5283  19.239   3.610   2.325 -0.2586 -0.3649  0.0176
  481UDC     C4 5284  19.301   3.523   2.438 -1.0892 -0.7700 -0.8297
  481UDC     C5 5285  19.249   3.373   2.441 -1.0345 -1.3391 -0.2899
  481UDC     C6 5286  19.265   3.314   2.585 -0.7818  0.3780  0.3847
  481UDC     C7 5287  19.222   3.170   2.612 -0.0742 -0.0640  0.0327
  481UDC     C8 5288  19.079   3.165   2.561 -0.5936  0.2803  0.0173
  481UDC     C9 5289  19.003   3.033   2.596 -0.7388 -1.7589 -0.1641
  481UDC    C10 5290  18.951   3.032   2.736  0.3863  0.4863 -0.1306
  481UDC    C11 5291  18.864   2.904   2.763  0.0853  0.3341 -0.8306
  482UDC     C1 5292  13.702   7.927  16.170 -1.0081 -0.0856 -0.4594
  482UDC     C2 5293  13.633   8.059  16.140  0.4440 -0.1436  0.1456
  482UDC     C3 5294  13.530   8.035  16.029  0.7015 -0.4549  0.0052
  482UDC     C4 5295  13.596   7.959  15.900  0.3408 -0.6440 -1.0278
  482UDC     C5 5296  13.489   7.916  15.798 -0.2309  0.0768  1.3132
  482UDC     C6 5297  13.540   7.806  15.692  0.1535 -0.2312 -0.2976
  482UDC     C7 5298  13.480   7.856  15.564  0.2109 -0.0417 -0.6202
  482UDC     C8 5299  13.331   7.814  15.536  1.2721  0.4293 -0.2909
  482UDC     C9 5300  13.259   7.882  15.414 -0.7445  0.1469  0.7884
  482UDC    C10 5301  13.112   7.830  15.382 -0.6386  0.7346  0.1042
  482UDC    C11 5302  13.015   7.922  15.456  0.2082 -0.1918 -0.2929
  483UDC     C1 5303   5.322   0.939  17.796 -0.1656 -0.1377  0.3614
  483UDC     C2 5304   5.341   1.063  17.888  0.1612 -1.0762 -0.2138
  483UDC     C3 5305   5.380   1.029  18.033 -1.0800  0.1908  0.8724
  483UDC     C4 5306   5.262   0.977  18.116 -0.2746  0.4765 -0.9978
  483UDC     C5 5307   5.293   0.958  18.260  0.6576  0.8145 -0.3361
  483UDC     C6 5308   5.204   1.035  18.354  0.5299 -0.0433 -0.8204
  483UDC     C7 5309   5.229   1.006  18.505  0.8512 -0.5287 -0.5622
  483UDC     C8 5310   5.372   1.012  18.551 -0.4789  0.7062 -0.5039
  483UDC     C9 5311   5.393   0.992  18.702 -0.8195 -0.6497 -1.1502
  483UDC    C10 5312   5.536   1.018  18.752 -1.0005  0.7998 -0.4687
  483UDC    C11 5313   5.545   0.973  18.899 -0.6049 -0.2597  0.6148
  484UDC     C1 5314   1.859   8.104  13.303  0.3887 -0.4799 -0.3240
  484UDC     C2 5315   1.769   8.064  13.427  0.0624  0.0895 -0.1451
  484UDC     C3 5316   1.617   8.067  13.395  0.5830 -0.2981  1.3903
  484UDC     C4 5317   1.594   7.990  13.264 -0.2954  0.8354 -0.2407
  484UDC     C5 5318   1.445   8.002  13.234  0.0473 -0.1241  0.3725
  484UDC     C6 5319   1.365   8.123  13.281  0.0414 -0.1642  0.0681
  484UDC     C7 5320   1.217   8.107  13.229  0.5336  0.0744 -0.2623
  484UDC     C8 5321   1.141   8.237  13.246 -0.2837 -0.6054  0.0338
  484UDC     C9 5322   1.221   8.353  13.186 -0.1037 -0.8179  0.7303
  484UDC    C10 5323   1.186   8.500  13.219  0.7474  0.4736 -1.2089
  484UDC    C11 5324   1.299   8.595  13.200 -0.5166 -0.1376 -0.1339
  485UDC     C1 5325   1.654  12.308  19.611 -0.1463  0.2223  0.0681
  485UDC     C2 5326   1.733  12.225  19.705 -0.4253  0.0970 -0.8134
  485UDC     C3 5327   1.656  12.092  19.736 -0.3697 -0.6049  0.1917
  485UDC     C4 5328   1.739  11.990  19.821  1.6501  0.8272  0.5719
  485UDC     C5 5329   1.873  11.934  19.770 -0.4126  0.2134 -0.1048
  485UDC     C6 5330   1.861  11.842  19.645 -0.2488 -0.2479  0.5795
  485UDC     C7 5331   2.000  11.816  19.580 -0.3705 -0.3728  0.0063
  485UDC     C8 5332   2.070  11.933  19.510  0.6061  0.0953 -1.1246
  485UDC     C9 5333   2.049  11.962  19.359 -0.8148  0.1605  0.1846
  485UDC    C10 5334   2.127  12.080  19.305  0.0879  1.0783  0.6610
  485UDC    C11 5335   2.025  12.136  19.200  0.0826 -1.2172 -0.8591
  486UDC     C1 5336   4.075  12.137   0.789  0.7450  1.0197 -0.4077
  486UDC     C2 5337   4.148  11.998   0.764  1.7092  0.6662  0.4429
  486UDC     C3 5338   4.109  11.881   0.857  0.2872  0.1495  0.2932
  486UDC     C4 5339   4.190  11.765   0.809 -0.0072  0.1419  0.9881
  486UDC     C5 5340   4.306  11.730   0.903  0.6026 -0.1233 -0.2855
  486UDC     C6 5341   4.361  11.590   0.879  0.0088  0.2500 -0.2225
  486UDC     C7 5342   4.256  11.495   0.933 -0.4494  0.7287  0.6560
  486UDC     C8 5343   4.286  11.369   0.854 -0.7122  0.6127  0.0108
  486UDC     C9 5344   4.286  11.388   0.695  0.0846 -0.8804  0.6786
  486UDC    C10 5345   4.150  11.357   0.645  0.3412 -0.1451  0.3039
  486UDC    C11 5346   4.164  11.275   0.511 -0.0373 -0.1629 -0.2549
  487UDC     C1 5347   3.445  16.727  17.103 -0.0624 -0.2620 -0.4188
  487UDC     C2 5348   3.402  16.873  17.148  0.8147  0.2186  0.1575
  487UDC     C3 5349   3.425  16.914  17.296  0.1846 -0.2178  1.1826
  487UDC     C4 5350   3.410  17.065  17.311  0.7802  0.0677 -0.0662
  487UDC     C5 5351   3.526  17.138  17.240  1.3612 -0.8517 -0.3957
  487UDC     C6 5352   3.529  17.281  17.299 -0.7111  0.2878  1.1735
  487UDC     C7 5353   3.618  17.382  17.244 -0.6709 -0.8273  0.1778
  487UDC     C8 5354   3.613  17.396  17.096 -1.3446 -1.2896  0.6318
  487UDC     C9 5355   3.507  17.490  17.040  0.3297 -1.1020 -0.1398
  487UDC    C10 5356   3.502  17.528  16.887  0.7377  0.4289 -0.8014
  487UDC    C11 5357   3.449  17.416  16.788  0.3709  0.1059 -0.5951
  488UDC     C1 5358  18.354   5.526   5.374  0.1784 -0.0285 -1.4663
  488UDC     C2 5359  18.235   5.441   5.329  0.0784 -0.0464  0.2935
  488UDC     C3 5360  18.113   5.435   5.422 -0.5768  0.1623  0.4813
  488UDC     C4 5361  18.000   5.348   5.363 -0.2199 -0.3992  0.9874
  488UDC     C5 5362  17.864   5.355   5.433 -0.3226 -0.3520 -1.6130
  488UDC     C6 5363  17.852   5.252   5.553  0.0383 -0.4747  1.0405
  488UDC     C7 5364  17.806   5.110   5.519 -0.3601 -0.6953 -0.0660
  488UDC     C8 5365  17.664   5.089   5.475  0.4821  0.6573  0.0301
  488UDC     C9 5366  17.645   4.935   5.469 -0.5345 -0.5997  0.9211
  488UDC    C10 5367  17.722   4.873   5.585  1.0723 -1.1349 -0.0449
  488UDC    C11 5368  17.808   4.744   5.553  0.4452  0.7318  0.5600
  489UDC     C1 5369   1.227   5.396  16.569  0.9164  0.3058 -0.7002
  489UDC     C2 5370   1.085   5.439  16.614 -0.1761 -0.0722  0.4904
  489UDC     C3 5371   1.058   5.572  16.551  0.2932  0.2468  0.4312
  489UDC     C4 5372   0.910   5.630  16.566 -0.4004 -0.1735  1.1152
  489UDC     C5 5373   0.835   5.583  16.695 -0.3266 -0.9245  0.6258
  489UDC     C6 5374   0.686   5.616  16.698  0.2792 -0.7419 -0.8890
  489UDC     C7 5375   0.614   5.551  16.587 -0.5924 -0.4147  0.0063
  489UDC     C8 5376   0.575   5.413  16.634  0.4795  1.5158 -0.9765
  489UDC     C9 5377   0.490   5.330  16.536  0.2735 -1.4682  0.0493
  489UDC    C10 5378   0.407   5.204  16.580  0.1122  0.3191  0.5369
  489UDC    C11 5379   0.379   5.092  16.475 -0.3451  0.2266  1.6472
  490UDC     C1 5380  17.165  16.605  18.136 -0.9852  0.8692  0.2079
  490UDC     C2 5381  17.075  16.647  18.019 -0.6012  0.6645  0.7801
  490UDC     C3 5382  17.056  16.521  17.935  1.3829  0.6943  0.1639
  490UDC     C4 5383  17.177  16.485  17.844  0.3284 -0.9551  0.0022
  490UDC     C5 5384  17.158  16.457  17.694 -0.2416 -2.3191  0.2272
  490UDC     C6 5385  17.150  16.581  17.611 -0.6708 -0.4844  0.1881
  490UDC     C7 5386  17.137  16.555  17.456  0.6511 -0.7817 -1.0898
  490UDC     C8 5387  17.153  16.689  17.383 -0.5341  0.4840  0.2967
  490UDC     C9 5388  17.104  16.659  17.237 -1.1777 -0.2624 -0.3977
  490UDC    C10 5389  17.081  16.788  17.156 -0.3747 -0.2880 -0.2275
  490UDC    C11 5390  16.938  16.810  17.187  0.3848 -0.2975 -1.1335
  491UDC     C1 5391  11.367  13.728   1.342  1.1464 -0.1601 -0.6301
  491UDC     C2 5392  11.430  13.784   1.222  0.2786  0.3080  0.3945
  491UDC     C3 5393  11.577  13.732   1.199  0.4708  1.3076  0.5718
  491UDC     C4 5394  11.646  13.791   1.072 -0.0395  0.9759 -0.7454
  491UDC     C5 5395  11.708  13.926   1.113 -1.6668  0.7871 -0.5861
  491UDC     C6 5396  11.782  13.989   0.989 -0.0865  0.0718  0.0773
  491UDC     C7 5397  11.702  13.971   0.857 -0.3390  0.2250  0.5174
  491UDC     C8 5398  11.745  14.045   0.730 -0.6191  0.1800 -0.0611
  491UDC     C9 5399  11.641  14.037   0.621 -0.2099  0.3493  0.4666
  491UDC    C10 5400  11.639  14.128   0.504  1.0687  2.2911 -0.4161
  491UDC    C11 5401  11.534  14.078   0.408 -0.2081 -0.7396  0.9105
  492UDC     C1 5402  11.966  18.749  12.408  0.4992 -0.0718  0.7082
  492UDC     C2 5403  11.986  18.850  12.528 -0.2995  1.0442 -0.6044
  492UDC     C3 5404  12.132  18.881  12.566 -0.3139 -0.4722  0.3547
  492UDC     C4 5405  12.212  18.755  12.604  0.6980  0.1378  0.4255
  492UDC     C5 5406  12.364  18.764  12.605  0.7832 -0.4676 -0.5609
  492UDC     C6 5407  12.423  18.791  12.747  0.9956  1.3325 -0.2136
  492UDC     C7 5408  12.516  18.674  12.787 -0.0119 -0.6172  0.1098
  492UDC     C8 5409  12.429  18.573  12.865  0.2530 -0.9719  0.1882
  492UDC     C9 5410  12.493  18.452  12.930 -0.1050  1.1336 -1.2427
  492UDC    C10 5411  12.606  18.495  13.011 -0.8287 -0.8131 -0.4979
  492UDC    C11 5412  12.667  18.388  13.100  0.0131  0.5919 -0.9471
  493UDC     C1 5413  11.885  17.077  13.507 -0.3745 -1.7218 -0.5136
  493UDC     C2 5414  12.000  17.067  13.604 -0.3990  0.1573 -0.4989
  493UDC     C3 5415  12.040  17.187  13.695  0.0141  0.6028  0.4278
  493UDC     C4 5416  12.169  17.179  13.770 -0.0414 -0.8806 -0.7590
  493UDC     C5 5417  12.180  17.065  13.867 -0.2205  0.1318 -0.2058
  493UDC     C6 5418  12.320  17.014  13.914  0.8315  0.0013  0.0932
  493UDC     C7 5419  12.317  16.914  14.035 -0.1068  0.6883  0.7670
  493UDC     C8 5420  12.197  16.900  14.122  0.1332  0.5439  0.0600
  493UDC     C9 5421  12.211  16.779  14.222 -0.1555 -0.1954  0.1482
  493UDC    C10 5422  12.216  16.649  14.140 -0.2330 -0.2207 -0.2628
  493UDC    C11 5423  12.157  16.529  14.216 -0.2223 -0.3054  0.9833
  494UDC     C1 5424  16.609  10.934  15.245  0.0668 -0.4192  0.1470
  494UDC     C2 5425  16.598  10.833  15.132 -0.9844 -0.3606 -0.7328
  494UDC     C3 5426  16.468  10.823  15.045  0.0204 -0.1101 -0.4074
  494UDC     C4 5427  16.443  10.684  15.004 -0.6022  1.6572  0.0877
  494UDC     C5 5428  16.300  10.649  15.016  1.2912  0.3657 -0.4422
  494UDC     C6 5429  16.264  10.512  14.963 -0.9683  0.6374 -0.0715
  494UDC     C7 5430  16.322  10.387  15.029 -0.0565 -0.0401 -0.1949
  494UDC     C8 5431  16.271  10.326  15.159 -0.5569  1.5735  0.6360
  494UDC     C9 5432  16.321  10.185  15.199 -0.1521 -0.2478  0.6179
  494UDC    C10 5433  16.333  10.168  15.347 -0.1604  0.8630  0.0631
  494UDC    C11 5434  16.454  10.232  15.403 -0.1860 -0.0589 -0.4065
  495UDC     C1 5435  15.898  11.697  16.822 -0.4528  0.8154 -0.9239
  495UDC     C2 5436  16.023  11.650  16.750 -0.0340 -0.1791 -1.5644
  495UDC     C3 5437  15.973  11.568  16.627 -0.3032 -0.0990  0.2257
  495UDC     C4 5438  15.814  11.571  16.614 -0.4696 -0.0379 -0.5212
  495UDC     C5 5439  15.774  11.462  16.512 -0.2174  0.6655 -0.1350
  495UDC     C6 5440  15.634  11.403  16.507  0.1129  0.6869  0.6170
  495UDC     C7 5441  15.609  11.329  16.372 -0.1221  0.0288  0.3845
  495UDC     C8 5442  15.577  11.178  16.375 -0.3713  0.3254  0.9994
  495UDC     C9 5443  15.708  11.098  16.399  1.1313 -0.6350  0.0044
  495UDC    C10 5444  15.709  10.945  16.409 -0.8642  0.7517  0.3236
  495UDC    C11 5445  15.601  10.872  16.493 -0.2288 -0.6230  0.5293
  496UDC     C1 5446  13.591  10.956  17.288  0.8220 -1.5395  0.0522
  496UDC     C2 5447  13.562  10.830  17.365 -1.5816 -1.3672  1.0679
  496UDC     C3 5448  13.540  10.688  17.295 -0.5664 -0.4489 -0.1838
  496UDC     C4 5449  13.514  10.591  17.410 -0.1420 -0.3610 -0.1194
  496UDC     C5 5450  13.577  10.456  17.396 -0.7680  0.4903  0.1939
  496UDC     C6 5451  13.502  10.354  17.481 -0.1991 -0.5060 -0.5498
  496UDC     C7 5452  13.345  10.367  17.493  0.0497 -0.1097 -0.8342
  496UDC     C8 5453  13.270  10.226  17.502 -0.4130 -0.7855 -0.3823
  496UDC     C9 5454  13.152  10.222  17.407  0.1306  0.5188 -0.9669
  496UDC    C10 5455  13.187  10.157  17.271  0.3627 -0.3450  0.1886
  496UDC    C11 5456  13.060  10.183  17.193  0.1830  0.1773 -0.8210
  497UDC     C1 5457  15.093   9.432  17.658  0.2152  0.8209 -0.2349
  497UDC     C2 5458  15.004   9.339  17.579 -0.2053 -0.5249  0.9480
  497UDC     C3 5459  15.040   9.278  17.438 -0.1023  1.0798  0.3047
  497UDC     C4 5460  15.105   9.377  17.346  0.1225  0.4270  0.9171
  497UDC     C5 5461  15.007   9.455  17.262  0.7699  0.5348  0.2063
  497UDC     C6 5462  15.038   9.583  17.183 -0.6850 -0.1502  0.1442
  497UDC     C7 5463  15.002   9.700  17.272 -0.8547  0.4895  0.2994
  497UDC     C8 5464  15.106   9.727  17.388 -0.5603  0.2818 -1.1976
  497UDC     C9 5465  15.233   9.808  17.358 -0.2933  1.1659 -1.1874
  497UDC    C10 5466  15.329   9.791  17.475 -0.3530 -0.0982 -0.1436
  497UDC    C11 5467  15.405   9.662  17.467 -0.2815 -0.5060  0.0536
  498UDC     C1 5468   6.511  10.269  11.637  0.3672 -0.0937 -0.0605
  498UDC     C2 5469   6.417  10.195  11.545 -0.6044  1.5262  0.4793
  498UDC     C3 5470   6.427  10.036  11.558  0.7489 -0.8311 -0.7817
  498UDC     C4 5471   6.318   9.967  11.470 -0.5938 -0.0972 -1.3741
  498UDC     C5 5472   6.214   9.880  11.542 -0.4397 -0.2822  0.4090
  498UDC     C6 5473   6.096   9.958  11.610 -0.2113  0.2562  0.5495
  498UDC     C7 5474   5.997   9.860  11.684  0.3371  0.4837  0.2027
  498UDC     C8 5475   6.055   9.781  11.799 -0.4041 -1.5393  0.1733
  498UDC     C9 5476   5.947   9.690  11.866 -0.6272 -0.1393  0.6056
  498UDC    C10 5477   5.870   9.761  11.975  0.2746  0.6162 -0.2534
  498UDC    C11 5478   5.760   9.692  12.061 -0.0758 -0.2871 -0.0161
  499UDC     C1 5479  10.080  10.863  17.021  0.7662  0.2429 -0.2937
  499UDC     C2 5480  10.027  10.831  17.162  0.4745  1.4640 -0.0638
  499UDC     C3 5481   9.912  10.914  17.214 -0.1166  0.3067  0.8208
  499UDC     C4 5482   9.843  10.888  17.347  0.6010 -0.4206  0.5460
  499UDC     C5 5483   9.934  10.850  17.466 -0.2203  0.3567 -0.0553
  499UDC     C6 5484   9.867  10.824  17.602  0.4564  0.5446 -0.9383
  499UDC     C7 5485   9.958  10.755  17.710 -1.0678 -1.1315  0.5544
  499UDC     C8 5486   9.881  10.703  17.825  0.7018  0.9804  0.8464
  499UDC     C9 5487   9.792  10.586  17.778  0.4835  0.2685 -0.8963
  499UDC    C10 5488   9.869  10.464  17.720  0.4729  0.9712  0.2841
  499UDC    C11 5489   9.765  10.348  17.698 -0.3234  0.7818  0.7577
  500UDC     C1 5490  10.690   8.125  17.511  0.3654 -0.3158  0.2424
  500UDC     C2 5491  10.755   8.078  17.381  0.0117  0.0090 -0.6398
  500UDC     C3 5492  10.901   8.129  17.369  0.1257  0.5069  0.3568
  500UDC     C4 5493  10.990   8.088  17.248  0.1060 -0.9922  0.8710
  500UDC     C5 5494  11.135   8.147  17.243 -0.5380 -0.1454 -0.3491
  500UDC     C6 5495  11.227   8.114  17.125 -0.4069 -0.1030 -0.1452
  500UDC     C7 5496  11.207   8.152  16.978 -0.7530  0.3741  0.5788
  500UDC     C8 5497  11.300   8.080  16.879 -0.0825  0.6366  1.1416
  500UDC     C9 5498  11.273   8.144  16.746  0.4904 -0.3475 -0.5629
  500UDC    C10 5499  11.154   8.068  16.689  0.8953 -0.0269  1.0015
  500UDC    C11 5500  11.127   8.111  16.541  0.4215  0.6058  0.7240
  501UDC     C1 5501  19.377   6.153  17.187  0.1916 -0.4089  0.0834
  501UDC     C2 5502  19.428   6.036  17.092  1.1327 -0.4829 -0.2236
  501UDC     C3 5503  19.334   5.919  17.092  0.9131 -0.1335 -0.4830
  501UDC     C4 5504  19.183   5.955  17.105  0.6258  0.6448 -0.0061
  501UDC     C5 5505  19.092   5.843  17.053 -0.0954 -0.0432 -0.0647
  501UDC     C6 5506  19.024   5.771  17.171 -0.8557  0.3030  0.7524
  501UDC     C7 5507  18.902   5.694  17.116 -0.6695 -0.3732 -0.3767
  501UDC     C8 5508  18.820   5.630  17.234  0.7500 -0.4402  0.1871
  501UDC     C9 5509  18.695   5.554  17.178 -0.7352 -0.9783  0.0205
  501UDC    C10 5510  18.565   5.632  17.175  1.9123 -0.7622  0.1479
  501UDC    C11 5511  18.444   5.547  17.139 -0.2046  0.0159 -0.9307
  502UDC     C1 5512  13.824  16.920  12.777 -0.1986 -0.2572  0.1694
  502UDC     C2 5513  13.920  16.868  12.662 -0.5326  0.6206  0.8075
  502UDC     C3 5514  14.056  16.818  12.706 -0.2337 -0.7593  0.6119
  502UDC     C4 5515  14.037  16.696  12.788 -0.7477  1.1187  0.1766
  502UDC     C5 5516  14.161  16.620  12.834 -0.6111  0.2042  0.0724
  502UDC     C6 5517  14.125  16.494  12.898 -0.0479  0.7445 -0.6968
  502UDC     C7 5518  14.234  16.441  12.990 -0.2707  0.2266 -0.1015
  502UDC     C8 5519  14.186  16.328  13.082 -0.4118  0.1031 -0.1527
  502UDC     C9 5520  14.292  16.254  13.166 -0.3459  0.1900  0.6085
  502UDC    C10 5521  14.261  16.160  13.286  0.9458 -0.6047 -0.0189
  502UDC    C11 5522  14.367  16.099  13.371 -0.4587  0.0783 -0.1936
  503UDC     C1 5523   9.351   5.676   1.234 -0.0185 -0.8783 -0.2984
  503UDC     C2 5524   9.328   5.657   1.388 -0.1806  0.7237  1.2136
  503UDC     C3 5525   9.189   5.667   1.452  0.5672  0.4656  1.2278
  503UDC     C4 5526   9.184   5.634   1.600 -0.3269  0.5377 -0.1112
  503UDC     C5 5527   9.207   5.482   1.654  0.7153  0.4728  0.4306
  503UDC     C6 5528   9.215   5.468   1.808 -0.6086 -0.5201 -0.5678
  503UDC     C7 5529   9.340   5.539   1.859 -0.4031 -0.7000  0.1332
  503UDC     C8 5530   9.313   5.683   1.910 -0.7769 -0.2845  0.4670
  503UDC     C9 5531   9.433   5.771   1.959 -1.2067  0.2439  0.6143
  503UDC    C10 5532   9.546   5.699   2.035  0.2486  0.8348 -0.1177
  503UDC    C11 5533   9.639   5.792   2.108  0.9521  0.2823 -0.9707
  504UDC     C1 5534   2.515  19.976   3.255  0.5300  0.2391 -0.9320
  504UDC     C2 5535   2.482  19.972   3.104  0.0265  0.0125  0.1351
  504UDC     C3 5536   2.341  19.937   3.052 -1.0556  0.1942 -0.9682
  504UDC     C4 5537   2.312  20.027   2.932  0.0943 -0.3911 -0.7809
  504UDC     C5 5538   2.159  20.021   2.909  0.0202 -0.1445  0.2953
  504UDC     C6 5539   2.111  19.915   2.807 -0.5413 -0.0714 -0.9867
  504UDC     C7 5540   2.166  19.945   2.668 -0.4714  0.0721 -0.6988
  504UDC     C8 5541   2.167  19.822   2.583  0.9593 -0.5169  0.4191
  504UDC     C9 5542   2.032  19.753   2.557 -0.1992  0.0544 -0.4332
  504UDC    C10 5543   1.909  19.831   2.491 -0.7794  1.4364  0.0604
  504UDC    C11 5544   1.889  19.837   2.341 -0.2328  0.4063  1.4354
  505UDC     C1 5545   5.824   8.526   5.554 -0.2366 -0.8736  0.5185
  505UDC     C2 5546   5.942   8.614   5.518 -0.7106 -0.2174  0.2165
  505UDC     C3 5547   5.918   8.766   5.502 -0.1824 -0.5024 -0.4610
  505UDC     C4 5548   5.782   8.798   5.431  0.6871 -0.9117  0.7798
  505UDC     C5 5549   5.757   8.941   5.381  0.8260 -0.5283  0.8811
  505UDC     C6 5550   5.632   8.970   5.292  0.2445 -0.1875  0.1192
  505UDC     C7 5551   5.660   8.962   5.141 -0.4546 -0.5611 -0.0048
  505UDC     C8 5552   5.688   9.101   5.071  0.2946 -0.6037  0.2734
  505UDC     C9 5553   5.568   9.184   5.060  0.0465  0.3592 -0.1848
  505UDC    C10 5554   5.603   9.308   4.971 -0.9031 -0.2707  0.2793
  505UDC    C11 5555   5.503   9.431   4.993  0.0041 -0.6114 -0.0063
  506UDC     C1 5556  11.401  11.758  15.440 -0.3845  0.5059 -0.9631
  506UDC     C2 5557  11.510  11.756  15.546  0.2132  0.3894 -0.4531
  506UDC     C3 5558  11.468  11.655  15.659 -1.1903  0.6801 -0.6186
  506UDC     C4 5559  11.318  11.662  15.674 -0.5875  0.6973 -0.1270
  506UDC     C5 5560  11.263  11.547  15.758 -0.4763 -0.0067  0.4736
  506UDC     C6 5561  11.122  11.558  15.818 -0.0878  0.1859 -0.4272
  506UDC     C7 5562  11.083  11.670  15.912  0.2430  0.5751 -0.8031
  506UDC     C8 5563  10.968  11.637  16.009 -1.0687  0.0642  0.7809
  506UDC     C9 5564  10.962  11.738  16.116  0.0573 -1.2215  0.4826
  506UDC    C10 5565  10.972  11.664  16.249  0.9822  0.6117 -1.1789
  506UDC    C11 5566  10.867  11.555  16.265  0.1448 -0.4164 -0.4335
  507UDC     C1 5567  18.229  16.236  18.207 -0.7307 -0.9987 -0.6807
  507UDC     C2 5568  18.309  16.367  18.238 -0.0753  0.8407  0.1523
  507UDC     C3 5569  18.433  16.347  18.320 -0.3961 -0.3869  0.2307
  507UDC     C4 5570  18.559  16.289  18.256 -0.3927  0.1576 -1.4287
  507UDC     C5 5571  18.673  16.290  18.364 -1.2950 -0.2906  0.2454
  507UDC     C6 5572  18.818  16.265  18.307  0.9592 -0.4871  0.4579
  507UDC     C7 5573  18.922  16.271  18.421  0.8284 -0.1723 -0.8154
  507UDC     C8 5574  18.891  16.167  18.541  0.6058 -0.7937 -0.9733
  507UDC     C9 5575  19.021  16.166  18.635 -0.9030 -1.1193  0.1533
  507UDC    C10 5576  18.999  16.061  18.744 -0.0650 -1.0251 -1.2704
  507UDC    C11 5577  18.993  16.125  18.891 -0.4805 -0.2078 -0.0421
  508UDC     C1 5578  15.128   3.955  17.119 -0.0339 -0.3912 -0.7210
  508UDC     C2 5579  15.035   4.058  17.047  0.2462  0.0727 -1.2481
  508UDC     C3 5580  14.934   4.092  17.153 -1.3304 -0.1017 -0.3336
  508UDC     C4 5581  15.001   4.207  17.222  1.2926 -0.0207 -0.6935
  508UDC     C5 5582  14.906   4.295  17.329 -0.6552 -0.0617  0.1574
  508UDC     C6 5583  14.825   4.205  17.419  0.4503  0.4302 -0.3265
  508UDC     C7 5584  14.709   4.273  17.488  0.5952  0.2588 -1.0037
  508UDC     C8 5585  14.755   4.304  17.638  0.7425 -0.0187  0.9227
  508UDC     C9 5586  14.629   4.308  17.726  0.5572 -0.4670 -0.5648
  508UDC    C10 5587  14.651   4.316  17.878  0.0564 -0.0156  0.0821
  508UDC    C11 5588  14.529   4.314  17.970  0.4435  0.0179 -1.1337
  509UDC     C1 5589   3.662  11.131  18.963 -0.1330  0.2605  0.1701
  509UDC     C2 5590   3.582  11.008  19.003 -0.1246  0.5707 -0.9579
  509UDC     C3 5591   3.449  11.039  19.081  0.0686 -0.5946 -0.2224
  509UDC     C4 5592   3.345  10.922  19.073 -0.2777 -0.2509  0.7571
  509UDC     C5 5593   3.230  10.933  19.180  0.3355  0.9702  1.0487
  509UDC     C6 5594   3.272  10.948  19.327  0.5391 -0.0593  1.1864
  509UDC     C7 5595   3.144  10.909  19.407 -0.2338 -0.3678 -0.0285
  509UDC     C8 5596   3.093  11.032  19.481 -0.2810  0.0643  0.6042
  509UDC     C9 5597   2.955  11.013  19.551 -0.5744 -0.3818  0.2526
  509UDC    C10 5598   2.966  10.946  19.688  1.1723  0.6815  0.5562
  509UDC    C11 5599   2.842  10.877  19.738  1.2709 -0.3732 -0.8898
  510UDC     C1 5600  15.174   7.703   7.523 -0.8190  0.1733  0.6372
  510UDC     C2 5601  15.105   7.657   7.392  0.4357  0.6628  0.6848
  510UDC     C3 5602  15.178   7.746   7.288  0.1385 -1.5341  1.6722
  510UDC     C4 5603  15.131   7.723   7.143  0.8604  0.3991  0.2596
  510UDC     C5 5604  15.218   7.771   7.018  1.2570 -0.6601 -0.4546
  510UDC     C6 5605  15.227   7.672   6.902  0.9798 -0.4770  0.1522
  510UDC     C7 5606  15.306   7.728   6.788 -0.3758  0.1496  1.0865
  510UDC     C8 5607  15.318   7.635   6.663 -0.1571  0.3538  0.9089
  510UDC     C9 5608  15.456   7.582   6.620 -0.1278  0.5266 -0.5232
  510UDC    C10 5609  15.477   7.530   6.471  0.3581 -0.3581  0.0350
  510UDC    C11 5610  15.470   7.658   6.385 -0.3173  0.3783  0.2777
  511UDC     C1 5611   4.756   4.609   0.901 -0.1254  0.3369  0.5833
  511UDC     C2 5612   4.882   4.626   0.817  0.3415  0.4242  0.8414
  511UDC     C3 5613   5.014   4.634   0.889  0.3391 -0.4207 -0.3777
  511UDC     C4 5614   5.121   4.537   0.846 -0.4054 -0.2814 -0.5233
  511UDC     C5 5615   5.171   4.464   0.969 -0.3537  0.3190  0.1382
  511UDC     C6 5616   5.229   4.336   0.914  0.8200  0.4186  0.7336
  511UDC     C7 5617   5.348   4.287   0.993 -0.0474  0.7407  0.2683
  511UDC     C8 5618   5.326   4.270   1.141  0.8098 -0.2459 -0.3999
  511UDC     C9 5619   5.226   4.159   1.160  0.6857  0.8553  0.2710
  511UDC    C10 5620   5.220   4.064   1.284 -0.0649 -0.3609 -0.0256
  511UDC    C11 5621   5.351   3.973   1.287  0.8846 -0.0001 -0.1704
  512UDC     C1 5622  14.749  16.129   9.425 -0.0769  0.0535 -0.1006
  512UDC     C2 5623  14.880  16.100   9.348  0.5336 -0.5310 -1.0090
  512UDC     C3 5624  14.977  16.226   9.329  0.0386  0.4086  0.3581
  512UDC     C4 5625  15.010  16.320   9.442  0.9095 -0.1625 -0.6208
  512UDC     C5 5626  15.124  16.432   9.431  0.2065 -0.8979 -1.1935
  512UDC     C6 5627  15.147  16.524   9.558  0.1927 -0.3007  0.5025
  512UDC     C7 5628  15.241  16.635   9.519 -0.1629 -0.9458 -0.2681
  512UDC     C8 5629  15.225  16.743   9.629 -0.0400 -0.6253  0.1784
  512UDC     C9 5630  15.232  16.679   9.771  1.3190 -0.1656 -1.4819
  512UDC    C10 5631  15.193  16.785   9.871 -0.1803 -0.0136 -0.2898
  512UDC    C11 5632  15.056  16.856   9.878  0.6016  0.0246  0.7983
  513UDC     C1 5633  19.647   4.877   7.475 -1.0071  0.1011 -0.0840
  513UDC     C2 5634  19.642   4.795   7.607  0.1459  0.7276 -0.3252
  513UDC     C3 5635  19.504   4.749   7.664  0.3961  0.4804 -1.2347
  513UDC     C4 5636  19.506   4.789   7.819  1.0168 -0.0162  0.4885
  513UDC     C5 5637  19.491   4.941   7.830 -0.1964 -0.4409 -0.7243
  513UDC     C6 5638  19.372   5.001   7.755  0.4195 -0.6624 -0.8822
  513UDC     C7 5639  19.360   5.155   7.755  0.2912 -0.4884  0.2826
  513UDC     C8 5640  19.297   5.190   7.892  0.5468 -0.1746 -0.5443
  513UDC     C9 5641  19.397   5.296   7.956  0.0816  0.1113 -0.7293
  513UDC    C10 5642  19.443   5.264   8.102 -0.4990  0.4794 -0.7410
  513UDC    C11 5643  19.560   5.166   8.103 -1.3416 -0.3283  0.7707
  514UDC     C1 5644  13.717  10.057   5.126  0.5501  0.9637  0.2136
  514UDC     C2 5645  13.806  10.175   5.177  0.0722  0.1486 -0.0858
  514UDC     C3 5646  13.769  10.317   5.126  0.9056  0.1196 -0.9894
  514UDC     C4 5647  13.847  10.337   4.990  0.6044 -0.7675 -0.4894
  514UDC     C5 5648  13.830  10.461   4.901 -1.1637  0.4178 -0.5362
  514UDC     C6 5649  13.709  10.462   4.803  1.0197  0.2623  0.3914
  514UDC     C7 5650  13.719  10.572   4.699  0.5818  0.4867  0.2049
  514UDC     C8 5651  13.611  10.582   4.577 -0.4773 -0.1467 -0.4609
  514UDC     C9 5652  13.595  10.458   4.492 -0.4559  0.0046  0.0125
  514UDC    C10 5653  13.505  10.452   4.368  0.8254  0.1526 -1.0047
  514UDC    C11 5654  13.604  10.478   4.251  0.4430  0.3812  0.1518
  515UDC     C1 5655   1.804   4.767  10.157 -0.4324  0.4762  0.4596
  515UDC     C2 5656   1.955   4.745  10.122 -0.3870  1.4083  0.1432
  515UDC     C3 5657   2.040   4.866  10.135  0.3644  0.1055 -0.1524
  515UDC     C4 5658   1.970   4.986  10.073 -0.5030 -0.6640 -1.1000
  515UDC     C5 5659   2.055   5.123  10.093  0.9243  0.6486  0.1466
  515UDC     C6 5660   1.983   5.251  10.048  0.4599 -0.6421  0.6778
  515UDC     C7 5661   1.831   5.257  10.077 -0.4081  0.5652  0.3722
  515UDC     C8 5662   1.729   5.368  10.034 -0.5250  0.7257  1.2724
  515UDC     C9 5663   1.572   5.356  10.048  0.4552 -0.0182 -0.8985
  515UDC    C10 5664   1.530   5.367  10.198  0.4818 -0.5563 -0.0944
  515UDC    C11 5665   1.383   5.420  10.203  0.0563 -0.1076 -0.0985
  516UDC     C1 5666   2.807  12.425  15.767  0.4339 -0.2826  0.1200
  516UDC     C2 5667   2.839  12.428  15.618 -0.4809  0.5551 -0.6355
  516UDC     C3 5668   2.752  12.348  15.520  0.0715  0.6027  1.3586
  516UDC     C4 5669   2.808  12.346  15.371 -0.1847  0.0297 -0.5703
  516UDC     C5 5670   2.841  12.491  15.326  0.4783  0.4183  0.5778
  516UDC     C6 5671   2.707  12.577  15.315  0.3016  1.5774 -0.2058
  516UDC     C7 5672   2.735  12.695  15.219  0.3805  0.1208 -0.2607
  516UDC     C8 5673   2.862  12.767  15.254  0.4435 -0.9277  0.0314
  516UDC     C9 5674   2.966  12.821  15.147 -0.7140  0.1938  1.1901
  516UDC    C10 5675   3.099  12.881  15.213  0.4972  0.5877  0.0899
  516UDC    C11 5676   3.173  12.979  15.124  0.4310 -0.6222 -0.2072
  517UDC     C1 5677  11.538  12.548  14.052  0.1178 -0.4493  0.2888
  517UDC     C2 5678  11.569  12.433  14.139 -0.6707 -0.8476 -0.6895
  517UDC     C3 5679  11.574  12.489  14.285  0.8178 -0.5154  0.0677
  517UDC     C4 5680  11.695  12.434  14.355  0.1233 -0.8592  0.5154
  517UDC     C5 5681  11.721  12.493  14.492  0.5742  0.7217  0.8315
  517UDC     C6 5682  11.649  12.424  14.610 -0.6559 -0.2581  0.5419
  517UDC     C7 5683  11.637  12.506  14.743 -0.3174 -0.2742  1.1479
  517UDC     C8 5684  11.503  12.591  14.774  0.3177  0.1517 -0.3422
  517UDC     C9 5685  11.460  12.702  14.670  0.8606  0.8589  0.2720
  517UDC    C10 5686  11.358  12.803  14.729 -0.0565 -0.3762  1.6824
  517UDC    C11 5687  11.262  12.824  14.612 -1.2289  0.1478  0.2051
  518UDC     C1 5688   4.749  17.541  16.279 -0.9381 -0.6431 -1.0178
  518UDC     C2 5689   4.653  17.536  16.394  1.0571 -1.0711  0.7353
  518UDC     C3 5690   4.608  17.669  16.446  0.1308  0.6601  0.1579
  518UDC     C4 5691   4.625  17.688  16.596  0.3184 -0.0698 -0.7016
  518UDC     C5 5692   4.507  17.768  16.647  0.3673 -1.0512  0.1408
  518UDC     C6 5693   4.417  17.678  16.727  0.1761  1.4360 -0.7130
  518UDC     C7 5694   4.304  17.754  16.792  0.5116 -0.0655 -0.8094
  518UDC     C8 5695   4.232  17.641  16.873  0.3424  0.4019 -1.2405
  518UDC     C9 5696   4.136  17.681  16.999 -0.0496 -0.9037  1.0301
  518UDC    C10 5697   4.037  17.571  17.027  0.1610  0.4967 -0.2832
  518UDC    C11 5698   3.899  17.577  16.958  1.6956  0.0271  0.1471
  519UDC     C1 5699   5.849  19.358   7.630  0.2402  0.8992 -0.1561
  519UDC     C2 5700   5.791  19.484   7.570  0.2383 -0.6408 -0.7762
  519UDC     C3 5701   5.637  19.495   7.535 -0.9330  0.7433  0.3678
  519UDC     C4 5702   5.610  19.574   7.409 -0.2001  0.1334  0.4205
  519UDC     C5 5703   5.479  19.558   7.333  0.6862 -0.5598 -0.0696
  519UDC     C6 5704   5.450  19.646   7.207 -1.0010 -0.3628 -0.7437
  519UDC     C7 5705   5.312  19.639   7.145  0.3745  0.8528  0.1226
  519UDC     C8 5706   5.308  19.732   7.023 -0.2752  0.2162 -0.8672
  519UDC     C9 5707   5.165  19.724   6.961 -0.0112 -0.7109  0.1094
  519UDC    C10 5708   5.046  19.742   7.060  0.3719  0.5791 -0.6783
  519UDC    C11 5709   5.037  19.895   7.086  0.2119 -0.1416 -0.4324
  520UDC     C1 5710   1.963  11.372   1.235 -0.1827  0.2092 -0.1199
  520UDC     C2 5711   2.118  11.363   1.226 -0.1446 -0.1078 -0.8336
  520UDC     C3 5712   2.172  11.226   1.271 -0.8976  1.4290 -0.1575
  520UDC     C4 5713   2.195  11.210   1.426  0.0066 -0.2478 -0.0390
  520UDC     C5 5714   2.201  11.067   1.459  0.7539  0.3155  0.3944
  520UDC     C6 5715   2.331  10.997   1.496  0.5599 -0.0299  0.1864
  520UDC     C7 5716   2.435  10.994   1.385  1.3166 -0.0890  0.1139
  520UDC     C8 5717   2.582  10.945   1.414 -0.3857  0.1627 -0.7057
  520UDC     C9 5718   2.603  10.793   1.402  0.1063 -0.9145  0.8764
  520UDC    C10 5719   2.738  10.762   1.470 -0.0759  0.0809 -0.1812
  520UDC    C11 5720   2.850  10.739   1.376 -0.2749  0.5187  0.1116
  521UDC     C1 5721   4.484  14.376  14.887 -0.2263  1.2730 -0.5063
  521UDC     C2 5722   4.460  14.524  14.906  0.5944 -0.1976  0.3455
  521UDC     C3 5723   4.416  14.625  14.791  0.9030 -0.3395  1.3491
  521UDC     C4 5724   4.421  14.774  14.824 -0.4302 -0.7230 -0.2472
  521UDC     C5 5725   4.306  14.832  14.907  1.6494 -0.8312 -0.3012
  521UDC     C6 5726   4.315  14.781  15.050  0.7113 -0.2169 -0.3815
  521UDC     C7 5727   4.224  14.844  15.169 -0.5849  0.0053 -1.2874
  521UDC     C8 5728   4.117  14.945  15.129  0.2262 -0.3982 -0.7323
  521UDC     C9 5729   4.041  14.988  15.249 -0.4239  0.1798 -0.2600
  521UDC    C10 5730   4.097  15.112  15.313  1.0723  0.0700  0.1114
  521UDC    C11 5731   4.029  15.232  15.254  0.6558 -1.7744 -0.1343
  522UDC     C1 5732   3.034   9.574  12.238 -1.0725 -0.7870  0.8681
  522UDC     C2 5733   3.051   9.659  12.111 -0.0339 -0.1783 -0.7052
  522UDC     C3 5734   3.099   9.570  11.991 -1.4864 -0.1162  0.3666
  522UDC     C4 5735   3.108   9.630  11.846  0.8136 -0.3621 -0.4534
  522UDC     C5 5736   3.186   9.552  11.746 -0.6117  0.1211 -0.6748
  522UDC     C6 5737   3.180   9.619  11.611 -0.7417 -0.7544 -0.5174
  522UDC     C7 5738   3.213   9.766  11.603  0.1793  0.2564  0.3655
  522UDC     C8 5739   3.219   9.836  11.464  0.1515 -0.2773 -0.0006
  522UDC     C9 5740   3.218   9.989  11.459  0.6774 -0.2993  0.1606
  522UDC    C10 5741   3.316  10.041  11.348 -0.4649 -0.6392  0.5029
  522UDC    C11 5742   3.384  10.175  11.382 -0.3799  0.2079  0.3247
  523UDC     C1 5743   7.743  13.801  12.554  0.1724 -1.0265  0.7755
  523UDC     C2 5744   7.627  13.713  12.523  0.7040  0.7391 -0.0004
  523UDC     C3 5745   7.567  13.729  12.383 -0.3284  0.1150 -0.4476
  523UDC     C4 5746   7.465  13.613  12.376 -0.1928 -0.2399 -0.0795
  523UDC     C5 5747   7.408  13.612  12.229 -0.1722  0.9925  0.4840
  523UDC     C6 5748   7.262  13.562  12.206 -0.2045 -0.8030  0.2155
  523UDC     C7 5749   7.191  13.602  12.072  0.6657 -0.0215 -1.1946
  523UDC     C8 5750   7.068  13.690  12.104 -0.3784  0.3396  0.3420
  523UDC     C9 5751   7.105  13.791  12.210 -0.8513  0.5996  0.0814
  523UDC    C10 5752   7.042  13.926  12.167  0.0220 -0.3254 -0.2162
  523UDC    C11 5753   6.891  13.902  12.173 -0.0978  0.1608  0.1502
  524UDC     C1 5754   6.865  11.094   0.823  0.8624  0.5029 -0.4322
  524UDC     C2 5755   6.765  10.995   0.771  0.7014 -0.2549  0.5414
  524UDC     C3 5756   6.792  10.839   0.788  0.6541  0.4950  0.2780
  524UDC     C4 5757   6.708  10.759   0.684  0.7675 -0.2011  0.2402
  524UDC     C5 5758   6.560  10.791   0.713 -0.0419  0.1977 -0.8167
  524UDC     C6 5759   6.469  10.730   0.609  1.0588 -0.3788  0.6022
  524UDC     C7 5760   6.413  10.832   0.513  0.2435 -0.1926  0.3654
  524UDC     C8 5761   6.503  10.861   0.388  0.4321 -0.5636  0.6857
  524UDC     C9 5762   6.413  10.954   0.299 -0.6076  0.8513 -0.5208
  524UDC    C10 5763   6.337  11.073   0.361  0.0900 -0.7181 -0.8093
  524UDC    C11 5764   6.261  11.157   0.263  0.6041  0.1589 -0.8211
  525UDC     C1 5765   9.490  13.670  17.384 -0.4193 -0.0980  0.7396
  525UDC     C2 5766   9.464  13.650  17.232 -0.3833 -0.1969  0.3249
  525UDC     C3 5767   9.504  13.773  17.149 -0.5004 -0.6842  1.0023
  525UDC     C4 5768   9.474  13.784  16.999 -0.2170  0.7233 -0.8969
  525UDC     C5 5769   9.498  13.667  16.902 -0.3452 -0.4953 -0.6450
  525UDC     C6 5770   9.645  13.631  16.891  0.5628  0.0308  0.6465
  525UDC     C7 5771   9.674  13.484  16.881  0.5817 -0.0987 -0.5314
  525UDC     C8 5772   9.824  13.474  16.907  0.1815 -0.0093  0.3012
  525UDC     C9 5773   9.880  13.499  17.045  0.2688  0.0383 -0.5084
  525UDC    C10 5774  10.037  13.481  17.024 -0.3405  0.4719  0.6186
  525UDC    C11 5775  10.071  13.340  16.985 -0.2522  0.4244  0.5989
  526UDC     C1 5776  14.591  10.992  15.070  1.3485  0.9484 -0.0968
  526UDC     C2 5777  14.633  11.123  15.153 -1.2549  1.2082  0.1744
  526UDC     C3 5778  14.649  11.095  15.303  0.5396  0.3631 -0.1055
  526UDC     C4 5779  14.571  11.183  15.409 -0.1481  0.3622  1.0912
  526UDC     C5 5780  14.595  11.122  15.547 -0.2850  0.1956 -0.5540
  526UDC     C6 5781  14.736  11.091  15.597 -0.3491  0.1593  1.1946
  526UDC     C7 5782  14.818  11.215  15.614  0.6112  0.1281 -1.0130
  526UDC     C8 5783  14.918  11.226  15.721 -0.9819 -1.9140 -0.2575
  526UDC     C9 5784  15.007  11.098  15.740 -0.1537 -0.5927  1.6222
  526UDC    C10 5785  15.138  11.110  15.819  0.8269 -0.2984  0.6647
  526UDC    C11 5786  15.235  11.195  15.730  0.0885  0.4358  0.3689
  527UDC     C1 5787   7.524  13.805  19.558  0.2781  0.1438 -0.7762
  527UDC     C2 5788   7.618  13.919  19.523  0.5411 -0.0754 -0.1496
  527UDC     C3 5789   7.664  13.892  19.376 -0.0003 -0.7608  0.6442
  527UDC     C4 5790   7.798  13.950  19.322  2.2381 -0.9682  0.0743
  527UDC     C5 5791   7.924  13.872  19.358  1.6360 -1.2736  0.2169
  527UDC     C6 5792   7.990  13.815  19.226  0.3618  0.8092  0.3280
  527UDC     C7 5793   7.904  13.705  19.159  0.5898 -0.5579 -0.0373
  527UDC     C8 5794   8.001  13.617  19.080  0.2422  0.9970  0.1538
  527UDC     C9 5795   8.092  13.526  19.178  0.4131 -0.4079 -0.3127
  527UDC    C10 5796   8.177  13.427  19.097  0.5016 -0.5850 -0.0477
  527UDC    C11 5797   8.278  13.358  19.195 -0.2832  1.2044  0.5215
  528UDC     C1 5798   9.328  18.628  13.570 -0.3042  1.4024 -0.4883
  528UDC     C2 5799   9.380  18.756  13.625  0.2875 -0.5750 -0.4218
  528UDC     C3 5800   9.400  18.867  13.521  0.4482  0.2179 -0.0868
  528UDC     C4 5801   9.432  18.827  13.380  0.1018  0.3087  0.6971
  528UDC     C5 5802   9.433  18.926  13.263 -0.0923 -0.1747  0.6517
  528UDC     C6 5803   9.285  18.964  13.216  0.0907 -0.3632  0.6079
  528UDC     C7 5804   9.270  19.049  13.085  0.3441  0.5232 -0.5538
  528UDC     C8 5805   9.287  18.973  12.951 -0.0102  0.4705  0.0011
  528UDC     C9 5806   9.167  18.874  12.950  0.5743  0.3135 -0.3613
  528UDC    C10 5807   9.105  18.822  12.810  0.6687  0.2336 -0.6389
  528UDC    C11 5808   8.990  18.722  12.794  1.5018 -0.2000  1.4129
  529UDC     C1 5809  16.156   0.115  11.751  0.3244 -0.3045 -0.5437
  529UDC     C2 5810  16.259   0.192  11.673 -0.4597 -0.3069  0.3348
  529UDC     C3 5811  16.338   0.291  11.754 -0.4585 -1.1267  0.4009
  529UDC     C4 5812  16.329   0.434  11.701 -0.3539  0.0462 -0.6147
  529UDC     C5 5813  16.332   0.531  11.813  0.2341 -1.0327 -0.9555
  529UDC     C6 5814  16.327   0.680  11.767  0.0422  0.2193  0.5712
  529UDC     C7 5815  16.466   0.708  11.709 -1.4015 -0.3904 -0.0908
  529UDC     C8 5816  16.480   0.841  11.641 -0.2478 -1.2584 -0.0468
  529UDC     C9 5817  16.627   0.852  11.596 -0.3494  0.7664  0.6088
  529UDC    C10 5818  16.642   0.959  11.483  1.3857 -0.1922 -0.2380
  529UDC    C11 5819  16.772   0.972  11.394  0.5710 -0.6916  0.4456
  530UDC     C1 5820  18.148   4.299  16.822  0.1896  0.9781 -2.0486
  530UDC     C2 5821  18.025   4.225  16.873  1.0290 -0.2990  0.2368
  530UDC     C3 5822  18.050   4.139  16.997  0.5445  0.1141 -1.0219
  530UDC     C4 5823  18.046   3.977  16.985  0.3918 -0.4357 -0.0262
  530UDC     C5 5824  17.938   3.944  16.880 -0.2880 -0.3328  0.0470
  530UDC     C6 5825  17.889   3.802  16.860 -0.9758 -0.0457 -0.0488
  530UDC     C7 5826  17.752   3.827  16.814 -0.1632 -0.3305  0.8249
  530UDC     C8 5827  17.753   3.860  16.662  0.4149 -0.8613  0.8196
  530UDC     C9 5828  17.746   3.733  16.575  0.3274  0.2069 -0.5374
  530UDC    C10 5829  17.719   3.754  16.425 -0.4977  0.4427  0.0470
  530UDC    C11 5830  17.708   3.625  16.336  0.3610  0.8865  0.0319
  531UDC     C1 5831   2.259   0.095  18.280 -0.1977 -0.5995 -0.3776
  531UDC     C2 5832   2.400   0.053  18.329  1.0689  0.4854  0.9345
  531UDC     C3 5833   2.486   0.159  18.397  0.8458 -0.1558  0.5122
  531UDC     C4 5834   2.630   0.106  18.386 -0.4789 -0.0292 -0.7626
  531UDC     C5 5835   2.748   0.217  18.389  1.3199 -0.2347  0.4575
  531UDC     C6 5836   2.777   0.262  18.243  0.0110 -0.3150  0.0314
  531UDC     C7 5837   2.872   0.377  18.233 -0.2906 -0.8205 -0.3657
  531UDC     C8 5838   2.791   0.497  18.300  0.3367  0.4488  0.0656
  531UDC     C9 5839   2.845   0.631  18.257 -0.3783  0.1986 -1.0654
  531UDC    C10 5840   2.815   0.749  18.345  0.4368  0.6791 -0.1775
  531UDC    C11 5841   2.816   0.890  18.287 -0.0750  0.0114  0.0867
  532UDC     C1 5842   1.620   8.008  17.848  0.5508 -0.5307  0.4410
  532UDC     C2 5843   1.739   8.097  17.804  0.1719  0.3009 -0.7633
  532UDC     C3 5844   1.793   8.103  17.669 -1.3465  0.4333  0.6670
  532UDC     C4 5845   1.909   8.194  17.617  0.5720  0.5010  0.0972
  532UDC     C5 5846   2.040   8.108  17.654 -0.2890  0.1305 -0.0728
  532UDC     C6 5847   2.162   8.174  17.583 -1.2322  0.0163  0.1805
  532UDC     C7 5848   2.299   8.096  17.593 -0.2049 -0.5348  0.0258
  532UDC     C8 5849   2.297   7.975  17.496  1.3827 -0.2771  0.3858
  532UDC     C9 5850   2.322   8.012  17.352  0.4659 -0.5068 -0.4866
  532UDC    C10 5851   2.450   8.078  17.315 -1.7840 -1.3304 -0.7370
  532UDC    C11 5852   2.487   8.067  17.168  1.2934  1.1690 -0.1324
  533UDC     C1 5853  11.726   9.261  16.938  0.1237 -0.6977 -0.4571
  533UDC     C2 5854  11.738   9.106  16.894  0.5194 -0.0049  0.4410
  533UDC     C3 5855  11.703   9.021  17.012  0.2027  1.0487  0.5065
  533UDC     C4 5856  11.731   8.870  17.002  0.4069 -0.4216 -0.4909
  533UDC     C5 5857  11.714   8.788  17.132  0.3506 -0.3364  0.6358
  533UDC     C6 5858  11.769   8.647  17.121  0.8050  1.0677 -0.5279
  533UDC     C7 5859  11.781   8.594  17.266 -0.0579  0.6080  0.5144
  533UDC     C8 5860  11.652   8.607  17.348 -0.3917 -0.3787  0.0264
  533UDC     C9 5861  11.667   8.568  17.496  0.0334 -1.1145 -0.5224
  533UDC    C10 5862  11.698   8.425  17.521 -0.5460  1.0640  0.8359
  533UDC    C11 5863  11.721   8.391  17.675 -0.2891 -0.5942  0.2187
  534UDC     C1 5864   4.505   0.833  14.302  0.3295  0.3177  0.2437
  534UDC     C2 5865   4.548   0.712  14.382  0.6992 -1.0487 -0.5135
  534UDC     C3 5866   4.516   0.757  14.524 -0.8384  0.1469  0.2192
  534UDC     C4 5867   4.552   0.905  14.570 -0.1818 -0.1346 -0.1303
  534UDC     C5 5868   4.500   0.928  14.713 -0.3215 -0.1782 -0.8541
  534UDC     C6 5869   4.609   0.980  14.805 -0.1123 -0.6405 -0.7648
  534UDC     C7 5870   4.602   0.939  14.953  1.1817  0.4437  0.5329
  534UDC     C8 5871   4.514   1.035  15.034  0.1320  0.0122  0.0830
  534UDC     C9 5872   4.477   1.002  15.180 -0.2146 -1.1183 -0.4691
  534UDC    C10 5873   4.497   1.129  15.274  0.3230  0.1191 -0.2331
  534UDC    C11 5874   4.441   1.146  15.414  0.5413 -0.3171  0.1188
  535UDC     C1 5875   7.063   9.142   4.004  0.7669  0.1334 -0.1336
  535UDC     C2 5876   7.088   9.009   3.932 -0.9218 -0.4311  0.7072
  535UDC     C3 5877   6.962   8.926   3.954  0.3995  0.3259  1.6327
  535UDC     C4 5878   6.857   8.954   3.852 -0.5505 -1.3702 -0.3077
  535UDC     C5 5879   6.761   8.842   3.850  0.7590  0.6610  0.1613
  535UDC     C6 5880   6.687   8.803   3.724 -0.2397  0.2407 -1.0246
  535UDC     C7 5881   6.595   8.680   3.750 -0.9063 -0.6233 -0.0849
  535UDC     C8 5882   6.612   8.579   3.634 -0.3040  0.8074  0.6097
  535UDC     C9 5883   6.513   8.461   3.657  0.1695 -0.8048  0.1248
  535UDC    C10 5884   6.571   8.346   3.745  0.0575 -0.0196  1.4537
  535UDC    C11 5885   6.466   8.248   3.796 -0.1129  0.2558 -0.1257
  536UDC     C1 5886  12.593   2.196   7.628 -0.2216  0.9148  0.3270
  536UDC     C2 5887  12.725   2.120   7.604 -1.6748  1.2896  0.6674
  536UDC     C3 5888  12.841   2.211   7.564 -0.2457  0.3173 -0.3392
  536UDC     C4 5889  12.983   2.149   7.576 -0.4364  0.5255  0.4645
  536UDC     C5 5890  13.016   2.025   7.493 -0.3752  0.0941  0.9560
  536UDC     C6 5891  13.138   1.950   7.530  0.2591 -0.8896  0.5578
  536UDC     C7 5892  13.153   1.807   7.467 -0.8807 -0.9383  0.1281
  536UDC     C8 5893  13.054   1.711   7.542 -1.0121 -0.5778  0.1578
  536UDC     C9 5894  13.085   1.568   7.564 -1.1802  1.4234 -1.1016
  536UDC    C10 5895  13.102   1.473   7.444  0.7998 -0.0459 -0.2210
  536UDC    C11 5896  13.206   1.357   7.468  0.0312  0.1395  0.9740
  537UDC     C1 5897   1.632   2.188  17.551  0.6269  0.2595  0.9722
  537UDC     C2 5898   1.499   2.231  17.490  0.1778  0.5228 -0.0694
  537UDC     C3 5899   1.384   2.220  17.587  0.0900 -0.1390 -0.0693
  537UDC     C4 5900   1.363   2.346  17.680  0.2852 -0.4427  0.1153
  537UDC     C5 5901   1.230   2.360  17.754 -0.4268 -1.2903 -0.3242
  537UDC     C6 5902   1.218   2.277  17.881  0.4676  0.8447 -1.5686
  537UDC     C7 5903   1.336   2.234  17.966  0.8945  0.6098  0.5350
  537UDC     C8 5904   1.405   2.357  18.033  0.5984 -0.4108 -1.0726
  537UDC     C9 5905   1.517   2.301  18.123  1.1497 -0.3485 -0.3573
  537UDC    C10 5906   1.652   2.369  18.128  0.4860  0.0379 -0.2408
  537UDC    C11 5907   1.650   2.431  18.266  0.3557 -0.2930  0.6555
  538UDC     C1 5908  19.055  11.285   1.947  0.5582 -0.6160  1.2414
  538UDC     C2 5909  18.945  11.249   1.852  0.3302 -0.0662 -0.1485
  538UDC     C3 5910  18.819  11.212   1.929  1.0365 -0.5542  0.8357
  538UDC     C4 5911  18.693  11.226   1.837  0.2969 -0.1173 -0.7148
  538UDC     C5 5912  18.669  11.116   1.736  0.2636  0.0134 -0.1976
  538UDC     C6 5913  18.530  11.106   1.680 -0.4935 -0.9854  0.3578
  538UDC     C7 5914  18.552  11.074   1.532  0.0940  1.4349  0.1462
  538UDC     C8 5915  18.420  11.114   1.465 -0.2321 -0.3897 -0.0443
  538UDC     C9 5916  18.300  11.076   1.562  0.9280 -2.0035  0.3636
  538UDC    C10 5917  18.168  11.154   1.532 -0.1637 -0.4152  0.2312
  538UDC    C11 5918  18.053  11.150   1.627 -0.6643  0.7296 -0.6232
  539UDC     C1 5919  12.064   4.758   2.962  0.0631 -0.5970 -0.2837
  539UDC     C2 5920  12.012   4.758   3.110  0.7304 -1.2462 -0.4570
  539UDC     C3 5921  11.954   4.891   3.160  1.0811  0.0079 -0.1483
  539UDC     C4 5922  11.912   4.893   3.310  0.1868 -1.0211  0.0007
  539UDC     C5 5923  11.829   4.769   3.365 -1.6380 -0.1965 -0.8677
  539UDC     C6 5924  11.887   4.747   3.505 -0.1390 -0.3136 -1.4597
  539UDC     C7 5925  11.825   4.839   3.618 -0.5132  0.9799  0.2534
  539UDC     C8 5926  11.870   4.835   3.768  0.9171  0.5117  0.0104
  539UDC     C9 5927  12.007   4.886   3.815  0.6210  0.0339 -0.2608
  539UDC    C10 5928  12.052   4.844   3.960  0.8078 -0.2313 -0.3412
  539UDC    C11 5929  12.187   4.899   3.985 -0.2207  0.4416 -1.2790
  540UDC     C1 5930  16.012   8.374  18.799 -0.4048 -0.3733  0.0811
  540UDC     C2 5931  15.879   8.446  18.831 -2.6512 -0.2220  0.0669
  540UDC     C3 5932  15.807   8.511  18.716  0.2094 -1.3794 -0.1948
  540UDC     C4 5933  15.841   8.667  18.708  0.0145  0.4495 -1.2440
  540UDC     C5 5934  15.746   8.757  18.633 -0.1279 -0.3422  0.1661
  540UDC     C6 5935  15.623   8.785  18.722 -0.4932 -0.7167  0.7273
  540UDC     C7 5936  15.510   8.842  18.638 -0.3600  0.5812  0.5480
  540UDC     C8 5937  15.384   8.838  18.720 -0.0418 -0.0764  0.6064
  540UDC     C9 5938  15.301   8.971  18.694 -0.0583  0.5127  0.3823
  540UDC    C10 5939  15.164   8.971  18.767  0.4351 -0.3352  1.0291
  540UDC    C11 5940  15.184   8.964  18.916 -0.0631 -0.7156  0.2968
  541UDC     C1 5941   7.342   0.787   3.161  0.6737 -0.5872 -0.3901
  541UDC     C2 5942   7.451   0.890   3.152  0.0711 -0.4300  0.7313
  541UDC     C3 5943   7.576   0.837   3.219 -0.9604  1.1981  0.0542
  541UDC     C4 5944   7.665   0.752   3.133  0.5586  0.5176 -1.3423
  541UDC     C5 5945   7.720   0.635   3.215 -0.8040 -0.3409 -0.2344
  541UDC     C6 5946   7.795   0.524   3.137  0.8246  0.0153 -0.6954
  541UDC     C7 5947   7.703   0.452   3.034 -0.6719  1.0540  0.6394
  541UDC     C8 5948   7.600   0.354   3.089 -0.8091  0.2121 -0.1336
  541UDC     C9 5949   7.603   0.218   3.017 -1.4261  0.7130  0.1431
  541UDC    C10 5950   7.593   0.242   2.863  0.5181 -0.5458 -1.2356
  541UDC    C11 5951   7.451   0.195   2.820  1.2032 -1.6497 -0.7548
  542UDC     C1 5952   6.486  10.667   6.451 -0.9489  0.2185 -0.3466
  542UDC     C2 5953   6.403  10.735   6.343  0.4200  0.6829 -0.2182
  542UDC     C3 5954   6.462  10.873   6.308 -0.4012  1.0297 -0.6681
  542UDC     C4 5955   6.420  10.911   6.167  0.1560  0.8049 -0.2964
  542UDC     C5 5956   6.497  10.845   6.053  0.0608  0.5425  0.3357
  542UDC     C6 5957   6.430  10.847   5.911 -0.5431 -1.1006 -0.6427
  542UDC     C7 5958   6.528  10.788   5.810  0.2027 -0.4809  0.6036
  542UDC     C8 5959   6.512  10.833   5.659  0.2982 -0.2563  0.2181
  542UDC     C9 5960   6.579  10.966   5.612  0.3273  0.5109 -0.4639
  542UDC    C10 5961   6.614  10.989   5.466 -0.2315  0.3240  0.3536
  542UDC    C11 5962   6.658  11.137   5.450  1.0902 -0.0270 -0.4525
  543UDC     C1 5963  11.824   5.023   5.944 -0.7887  0.5701 -0.2984
  543UDC     C2 5964  11.816   5.025   6.095  0.4634  0.0880 -0.1987
  543UDC     C3 5965  11.768   5.152   6.158 -0.1369  0.4853  1.0304
  543UDC     C4 5966  11.714   5.149   6.300 -0.1120 -0.3245  0.0752
  543UDC     C5 5967  11.808   5.114   6.418 -0.9404 -0.4528 -0.0029
  543UDC     C6 5968  11.754   5.117   6.562 -1.1079  0.6651  0.1265
  543UDC     C7 5969  11.853   5.060   6.665 -0.4102 -0.4461 -0.4842
  543UDC     C8 5970  11.860   5.152   6.785  0.0789  0.6044  0.2546
  543UDC     C9 5971  11.963   5.269   6.781  0.4484 -0.8820  0.0905
  543UDC    C10 5972  11.980   5.317   6.930 -0.5562 -0.0796 -0.3625
  543UDC    C11 5973  12.044   5.208   7.009 -1.0169 -0.1003  0.6908
  544UDC     C1 5974   9.568   8.549  10.557  0.7387 -0.3634 -0.4812
  544UDC     C2 5975   9.567   8.617  10.416  0.8106 -0.6439 -0.1706
  544UDC     C3 5976   9.603   8.515  10.307 -0.5531  0.3594  0.6637
  544UDC     C4 5977   9.663   8.562  10.176 -0.4858  0.5480 -0.2245
  544UDC     C5 5978   9.635   8.460  10.066  0.6791  0.7162 -1.2410
  544UDC     C6 5979   9.658   8.315  10.105  0.0510 -0.3768 -0.1037
  544UDC     C7 5980   9.769   8.237  10.042 -0.5425 -0.3988  0.1414
  544UDC     C8 5981   9.704   8.164   9.923  0.6365  0.8486  0.8862
  544UDC     C9 5982   9.799   8.153   9.803  0.1928 -0.3482  0.1196
  544UDC    C10 5983   9.713   8.205   9.688  0.0305 -1.0867  0.7713
  544UDC    C11 5984   9.637   8.333   9.715  0.3109 -0.1722 -0.6868
  545UDC     C1 5985   4.397   7.316  13.725  0.9633  1.0775  0.4564
  545UDC     C2 5986   4.455   7.276  13.859 -0.8987  0.7165 -0.3391
  545UDC     C3 5987   4.599   7.221  13.865  1.6486  0.4824 -0.8906
  545UDC     C4 5988   4.671   7.220  13.998  0.0873 -0.4025 -0.8892
  545UDC     C5 5989   4.799   7.128  14.000  0.5951  0.2283 -0.0595
  545UDC     C6 5990   4.864   7.095  14.136  0.2083  0.6622 -0.4308
  545UDC     C7 5991   4.950   7.211  14.187 -0.5234 -0.6597  1.0786
  545UDC     C8 5992   5.092   7.170  14.222  0.6479  0.1795  0.3016
  545UDC     C9 5993   5.107   7.057  14.326 -0.9811 -0.9172 -0.0381
  545UDC    C10 5994   5.261   7.028  14.359  0.3669  0.1803 -0.9993
  545UDC    C11 5995   5.332   7.123  14.467  0.3099  0.7475  0.0463
  546UDC     C1 5996  12.704  14.898  16.132  0.1067  0.2842 -0.4421
  546UDC     C2 5997  12.615  14.994  16.047 -0.0178 -0.4733 -0.6112
  546UDC     C3 5998  12.660  15.142  16.035 -0.6527 -0.6847  0.9401
  546UDC     C4 5999  12.798  15.166  15.969  1.2032  0.0151 -0.1651
  546UDC     C5 6000  12.787  15.209  15.821 -0.0615  0.8321 -0.0256
  546UDC     C6 6001  12.723  15.346  15.778 -0.0412 -1.4431 -1.0232
  546UDC     C7 6002  12.780  15.468  15.860 -1.1401  0.6662  0.4322
  546UDC     C8 6003  12.687  15.522  15.976 -0.9806  0.5331  0.2884
  546UDC     C9 6004  12.566  15.584  15.904 -0.4756  0.3767  0.7430
  546UDC    C10 6005  12.558  15.734  15.942  0.6421  0.1625  0.0092
  546UDC    C11 6006  12.526  15.759  16.092 -1.0587  0.2559  0.3726
  547UDC     C1 6007  11.314  11.214   5.877 -0.8562  0.4688  0.0836
  547UDC     C2 6008  11.370  11.265   5.741  0.9130 -0.1986  1.4070
  547UDC     C3 6009  11.518  11.276   5.753 -1.0166  1.0825 -0.1757
  547UDC     C4 6010  11.556  11.170   5.861  1.3407 -1.4522  0.5291
  547UDC     C5 6011  11.704  11.138   5.872 -0.2578  1.2967  1.1793
  547UDC     C6 6012  11.725  11.050   5.992 -0.5770  0.1073 -0.8520
  547UDC     C7 6013  11.882  11.013   5.994  0.5460 -0.0564 -0.4339
  547UDC     C8 6014  11.965  11.137   6.035  0.9363  0.7832 -0.1914
  547UDC     C9 6015  12.114  11.125   6.032 -0.8127  0.3634 -0.0037
  547UDC    C10 6016  12.187  11.257   6.049  0.0775 -0.5598  0.5792
  547UDC    C11 6017  12.093  11.378   6.079 -0.6063  1.3133 -0.4476
  548UDC     C1 6018   2.343  12.976  10.855  1.0284 -1.5307 -0.4909
  548UDC     C2 6019   2.243  12.871  10.807  0.5289  0.0846 -0.3226
  548UDC     C3 6020   2.149  12.901  10.689  0.3171  0.2509  0.4313
  548UDC     C4 6021   2.195  12.926  10.535  0.7856 -0.0647 -0.7474
  548UDC     C5 6022   2.121  13.036  10.454  1.1579  0.0184 -0.2614
  548UDC     C6 6023   2.174  13.046  10.317 -0.2870  0.1383 -0.5005
  548UDC     C7 6024   2.095  12.952  10.224  1.4573  0.1630 -0.1189
  548UDC     C8 6025   2.020  13.036  10.123 -0.1931  0.5253  0.7187
  548UDC     C9 6026   1.968  12.977   9.996  0.0019  0.1967  1.6151
  548UDC    C10 6027   2.006  13.047   9.862 -1.4436 -0.6874  0.2861
  548UDC    C11 6028   2.008  13.202   9.856  1.0346  0.8734 -0.4402
  549UDC     C1 6029   2.396  19.493   5.614 -0.1979 -0.3369 -1.3734
  549UDC     C2 6030   2.425  19.639   5.564 -1.1546 -0.4569  0.5582
  549UDC     C3 6031   2.318  19.749   5.585  0.1220  0.7257 -0.5620
  549UDC     C4 6032   2.335  19.820   5.724 -0.3117  0.0299 -0.3248
  549UDC     C5 6033   2.230  19.936   5.724  0.1740 -0.0725 -0.5932
  549UDC     C6 6034   2.245  20.063   5.814  1.0191  0.5969 -0.0427
  549UDC     C7 6035   2.125  20.159   5.829 -0.1732 -0.2252  0.7261
  549UDC     C8 6036   2.126  20.306   5.883  0.5204 -0.2912 -0.7286
  549UDC     C9 6037   2.202  20.360   6.002  0.1296  0.0048 -0.3499
  549UDC    C10 6038   2.251  20.501   5.993  0.2209 -1.0484 -0.1151
  549UDC    C11 6039   2.157  20.608   5.940 -0.0563  0.5563 -0.9521
  550UDC     C1 6040   3.423   8.993  15.839  0.1058 -0.6629 -0.7909
  550UDC     C2 6041   3.278   8.961  15.798 -0.5185 -0.2649  0.2487
  550UDC     C3 6042   3.174   9.018  15.898 -0.4339  0.3486 -0.6719
  550UDC     C4 6043   3.214   8.995  16.044  0.5851  0.4458  1.2152
  550UDC     C5 6044   3.103   9.043  16.142  0.0949  1.1524 -1.0567
  550UDC     C6 6045   3.055   8.939  16.252  0.5284  1.2822  0.8064
  550UDC     C7 6046   2.908   8.948  16.310  0.2571  0.0977 -1.0008
  550UDC     C8 6047   2.786   8.940  16.223 -0.0390  0.2346  0.1783
  550UDC     C9 6048   2.671   8.926  16.320 -0.0720 -0.4266  0.6069
  550UDC    C10 6049   2.544   8.909  16.241  1.2024  1.0736 -0.4909
  550UDC    C11 6050   2.528   8.799  16.141 -0.0238  0.4782  0.7369
  551UDC     C1 6051  18.930   3.157  18.899  0.3551  0.2662  0.2841
  551UDC     C2 6052  18.930   3.160  18.744  0.2562 -0.2283  0.1895
  551UDC     C3 6053  18.912   3.301  18.686 -0.2296 -0.6943 -0.0392
  551UDC     C4 6054  18.894   3.306  18.535  0.0064  1.8377 -0.5448
  551UDC     C5 6055  18.852   3.435  18.463  0.0324 -1.1650 -1.0446
  551UDC     C6 6056  18.712   3.492  18.497 -0.5973 -0.2643 -0.6085
  551UDC     C7 6057  18.603   3.426  18.424  0.8459  0.5916 -1.1240
  551UDC     C8 6058  18.614   3.472  18.276  0.4341 -0.3491 -0.0413
  551UDC     C9 6059  18.512   3.394  18.203 -0.0393  1.4278  0.3287
  551UDC    C10 6060  18.365   3.408  18.245 -0.1897  1.0066  0.8471
  551UDC    C11 6061  18.260   3.338  18.161  0.8385 -0.6856 -0.0719
  552UDC     C1 6062  18.292  19.609   7.217 -0.1456 -0.1648 -1.0089
  552UDC     C2 6063  18.405  19.573   7.320  0.5422  0.2986  0.1478
  552UDC     C3 6064  18.531  19.535   7.250 -0.3846  1.3122 -0.3043
  552UDC     C4 6065  18.668  19.535   7.321 -0.3120 -0.6717 -0.7469
  552UDC     C5 6066  18.768  19.548   7.201  0.3175 -0.5189 -0.4372
  552UDC     C6 6067  18.763  19.427   7.114  0.2585  0.6246  0.3502
  552UDC     C7 6068  18.867  19.438   7.001  0.4179 -0.2949 -0.4184
  552UDC     C8 6069  18.836  19.562   6.913 -0.5875 -0.4294 -0.1299
  552UDC     C9 6070  18.714  19.562   6.819 -0.5396  0.1717 -0.4608
  552UDC    C10 6071  18.690  19.475   6.693 -0.0614  0.2308 -0.3546
  552UDC    C11 6072  18.568  19.515   6.613  0.0463 -0.5553 -0.1221
  553UDC     C1 6073  13.936   1.176  17.622 -0.2064  0.5409 -0.7906
  553UDC     C2 6074  14.053   1.229  17.543  0.4290  0.4544  0.8921
  553UDC     C3 6075  14.029   1.171  17.402  0.6279  0.7125 -0.6427
  553UDC     C4 6076  14.146   1.201  17.311  0.1046  0.3762  0.8152
  553UDC     C5 6077  14.132   1.144  17.170 -0.4702  0.8012 -0.0816
  553UDC     C6 6078  14.025   1.232  17.103 -0.7994 -0.9341 -0.1840
  553UDC     C7 6079  13.946   1.129  17.022 -0.1363  0.1237  1.3652
  553UDC     C8 6080  14.055   1.103  16.914  0.1113  0.0191 -1.0973
  553UDC     C9 6081  14.017   1.144  16.771  0.4986  0.5524 -0.0922
  553UDC    C10 6082  14.108   1.073  16.677 -0.0001 -0.7045 -0.4208
  553UDC    C11 6083  14.182   1.158  16.580  0.0217 -0.6576  0.6000
  554UDC     C1 6084   4.948   0.255  15.420 -0.9096 -0.3828  0.1582
  554UDC     C2 6085   4.852   0.367  15.383  0.3871 -0.5770 -1.7079
  554UDC     C3 6086   4.732   0.376  15.487  0.3163 -0.4970  0.9308
  554UDC     C4 6087   4.656   0.511  15.483  0.9544  0.4547  0.3741
  554UDC     C5 6088   4.512   0.504  15.542 -1.0391  0.8634  0.5422
  554UDC     C6 6089   4.401   0.609  15.537 -0.2371  1.0560 -0.4316
  554UDC     C7 6090   4.278   0.576  15.619 -0.5079 -0.7135 -0.2194
  554UDC     C8 6091   4.166   0.515  15.538  0.2633 -0.7799  0.1486
  554UDC     C9 6092   4.141   0.600  15.415 -0.2689 -0.7121 -0.0399
  554UDC    C10 6093   4.059   0.529  15.303  0.0594  0.2132 -0.4749
  554UDC    C11 6094   4.010   0.588  15.170 -0.2827  0.1188  0.3026
  555UDC     C1 6095  16.202   3.393   8.897 -1.1537 -0.7355 -0.1410
  555UDC     C2 6096  16.133   3.446   9.023 -0.5072 -0.9226  0.9485
  555UDC     C3 6097  16.015   3.363   9.080 -0.4993 -0.8322 -0.0026
  555UDC     C4 6098  15.952   3.434   9.203 -0.5441 -0.0124 -0.7864
  555UDC     C5 6099  16.051   3.484   9.314  0.3305  0.6138 -0.2330
  555UDC     C6 6100  16.109   3.350   9.385  0.6825 -0.1377  0.4413
  555UDC     C7 6101  16.115   3.384   9.535  0.2876 -1.2640  0.0885
  555UDC     C8 6102  16.170   3.278   9.626 -0.7368 -0.8660 -1.0915
  555UDC     C9 6103  16.255   3.329   9.743 -0.5750  0.9411  0.1169
  555UDC    C10 6104  16.386   3.374   9.691 -0.0885  0.5772 -0.0930
  555UDC    C11 6105  16.462   3.438   9.810  0.0759 -0.6291  0.4780
  556UDC     C1 6106   4.423   1.624   9.012  0.4197 -1.2472 -0.7608
  556UDC     C2 6107   4.453   1.776   9.023 -0.9053 -0.2906  0.0901
  556UDC     C3 6108   4.339   1.881   9.056 -0.2559  0.4062  0.6444
  556UDC     C4 6109   4.365   1.988   9.169 -0.8039  0.8029  0.2699
  556UDC     C5 6110   4.251   2.080   9.222 -0.2772  0.8299 -0.5771
  556UDC     C6 6111   4.217   1.986   9.341 -0.2055 -0.5957  0.2785
  556UDC     C7 6112   4.093   2.028   9.428  0.3234  0.0757  0.1149
  556UDC     C8 6113   3.960   2.023   9.339  0.3142 -1.4228  0.1118
  556UDC     C9 6114   3.845   2.089   9.414 -0.3323  0.0127  0.5130
  556UDC    C10 6115   3.853   2.043   9.564  0.3311 -0.1232 -0.4092
  556UDC    C11 6116   3.712   2.054   9.634  0.6208 -0.1530 -0.4098
  557UDC     C1 6117  16.030  13.827   7.662 -0.9134 -0.6760  0.0613
  557UDC     C2 6118  15.989  13.680   7.689  0.2237 -0.6254 -0.3433
  557UDC     C3 6119  16.111  13.585   7.686 -0.5185  0.2201 -0.4128
  557UDC     C4 6120  16.196  13.560   7.556  0.2864  0.4569  0.0242
  557UDC     C5 6121  16.123  13.548   7.420  0.8069 -0.4002  0.8498
  557UDC     C6 6122  16.203  13.497   7.301  0.3066 -0.7530  0.1591
  557UDC     C7 6123  16.159  13.361   7.239  0.3370  0.4929 -1.1070
  557UDC     C8 6124  16.255  13.311   7.129  1.3924  0.4642  1.5959
  557UDC     C9 6125  16.406  13.298   7.163  0.2113 -0.0447  0.4206
  557UDC    C10 6126  16.463  13.231   7.038 -0.0484  0.0684  0.4219
  557UDC    C11 6127  16.613  13.177   7.044 -0.1032  0.6889  0.0176
  558UDC     C1 6128  19.155   7.142  14.544 -0.1661  0.1542  1.2927
  558UDC     C2 6129  19.222   7.181  14.415  0.4618 -0.1801  0.3366
  558UDC     C3 6130  19.263   7.330  14.397  1.1320  0.7144 -0.1682
  558UDC     C4 6131  19.320   7.365  14.259 -0.6239  1.1622  0.0699
  558UDC     C5 6132  19.426   7.256  14.232 -0.6564  0.6315 -0.3442
  558UDC     C6 6133  19.527   7.279  14.117  0.4400 -0.0964 -0.3142
  558UDC     C7 6134  19.585   7.154  14.057 -0.2316 -0.6135  0.1181
  558UDC     C8 6135  19.643   7.170  13.918 -0.4498  0.7543  1.0145
  558UDC     C9 6136  19.552   7.177  13.791 -1.9322 -1.9195  0.6873
  558UDC    C10 6137  19.590   7.271  13.669  0.4758 -0.5826  0.3940
  558UDC    C11 6138  19.607   7.428  13.690  0.3998  0.1508  0.1323
  559UDC     C1 6139   7.591   8.927   0.770 -0.0842 -0.3577  0.0928
  559UDC     C2 6140   7.617   8.783   0.807 -0.0926  0.4315 -0.3756
  559UDC     C3 6141   7.774   8.759   0.800  1.2017  0.0564  0.4856
  559UDC     C4 6142   7.856   8.884   0.828 -0.4801 -0.6096  2.6228
  559UDC     C5 6143   7.905   8.914   0.969  0.4554 -0.0253  0.6437
  559UDC     C6 6144   8.003   9.034   0.960  0.0086  0.4479  0.6134
  559UDC     C7 6145   8.069   9.026   1.095 -0.5566  0.3620  0.0470
  559UDC     C8 6146   8.132   9.165   1.132 -0.2985  0.1060 -1.4169
  559UDC     C9 6147   8.248   9.207   1.035  1.3811  0.3388 -0.1055
  559UDC    C10 6148   8.313   9.352   1.045 -0.1671 -0.6285 -0.3926
  559UDC    C11 6149   8.225   9.477   1.049  0.1489  0.3833 -0.7498
  560UDC     C1 6150   2.215  13.936  10.417 -0.1207  0.7293 -0.0985
  560UDC     C2 6151   2.362  13.956  10.465  0.3036 -0.1266  0.1314
  560UDC     C3 6152   2.419  13.835  10.539 -0.1384 -0.3242 -0.0946
  560UDC     C4 6153   2.471  13.757  10.411  0.5650  0.1591 -0.1136
  560UDC     C5 6154   2.403  13.624  10.395 -0.0483  0.0094 -1.2280
  560UDC     C6 6155   2.458  13.568  10.264 -0.4287 -0.1309 -0.4835
  560UDC     C7 6156   2.444  13.413  10.258  0.9180 -0.9591 -0.0287
  560UDC     C8 6157   2.527  13.388  10.119  1.0207  0.4954  0.2480
  560UDC     C9 6158   2.526  13.237  10.103  1.0011  0.1458 -0.9799
  560UDC    C10 6159   2.525  13.160  10.235  1.0444  0.6910 -1.4138
  560UDC    C11 6160   2.522  13.006  10.245 -0.6929  0.2438 -1.0446
  561UDC     C1 6161   6.038   9.581   4.952 -0.3143  0.6078  0.1172
  561UDC     C2 6162   6.139   9.687   4.899  0.5204 -0.1986  0.3294
  561UDC     C3 6163   6.250   9.652   4.817 -1.8451 -0.1514 -1.0418
  561UDC     C4 6164   6.219   9.547   4.716 -1.3603  0.0364  0.3986
  561UDC     C5 6165   6.255   9.401   4.751  0.4665 -0.5433 -1.5779
  561UDC     C6 6166   6.404   9.386   4.719  0.2558  0.0577 -0.1985
  561UDC     C7 6167   6.470   9.270   4.801 -0.3221 -0.2056 -0.0353
  561UDC     C8 6168   6.610   9.228   4.732  0.1747  0.9536  0.1075
  561UDC     C9 6169   6.692   9.133   4.822 -1.7775  0.8107  0.2199
  561UDC    C10 6170   6.812   9.084   4.740  0.6986  0.9066 -0.1858
  561UDC    C11 6171   6.932   9.177   4.758 -1.3650  0.3098 -0.3360
  562UDC     C1 6172  11.847  11.201   6.482 -0.8076  0.0162  0.0755
  562UDC     C2 6173  11.923  11.131   6.597 -0.2276 -0.9666  0.8711
  562UDC     C3 6174  11.982  11.237   6.686 -1.0482  0.8799  0.5069
  562UDC     C4 6175  12.096  11.204   6.786 -0.2092  0.1457  0.1115
  562UDC     C5 6176  12.227  11.179   6.719 -0.8511 -0.0920  0.1951
  562UDC     C6 6177  12.318  11.178   6.844  1.2774  0.5246 -1.1286
  562UDC     C7 6178  12.332  11.034   6.911  0.4668  0.1028 -0.9053
  562UDC     C8 6179  12.435  10.953   6.830 -0.4298  0.4255  0.2345
  562UDC     C9 6180  12.568  11.027   6.846  0.5311  0.6072 -0.0670
  562UDC    C10 6181  12.679  10.975   6.749 -0.1307  1.1410 -0.2221
  562UDC    C11 6182  12.787  10.874   6.799 -0.4570  1.3862 -0.8309
  563UDC     C1 6183  18.947  10.569  12.535  0.1097 -0.3806 -0.5526
  563UDC     C2 6184  18.836  10.669  12.535 -0.1399  0.0009  0.0796
  563UDC     C3 6185  18.737  10.619  12.428 -0.7999 -1.0969  0.7456
  563UDC     C4 6186  18.593  10.655  12.441  0.2674 -0.5033  0.6474
  563UDC     C5 6187  18.524  10.661  12.302  0.0522 -0.3341 -1.3768
  563UDC     C6 6188  18.379  10.708  12.312 -0.4897  0.1438 -0.5551
  563UDC     C7 6189  18.288  10.618  12.218 -0.5047  0.3481 -0.2824
  563UDC     C8 6190  18.324  10.649  12.071  0.0659 -0.5243 -0.3369
  563UDC     C9 6191  18.241  10.574  11.965  0.5618  0.8467 -0.3457
  563UDC    C10 6192  18.322  10.458  11.895  0.6687  0.2496 -0.4139
  563UDC    C11 6193  18.215  10.369  11.823  0.1026  0.0243  0.6079
  564UDC     C1 6194  17.734   9.883   7.806  0.0095  0.8521  0.1271
  564UDC     C2 6195  17.785   9.900   7.949 -0.2063  1.0646  0.4898
  564UDC     C3 6196  17.708  10.014   8.010 -0.1078  0.2345 -0.2790
  564UDC     C4 6197  17.710  10.011   8.159  0.1200  0.1713 -0.1804
  564UDC     C5 6198  17.626  10.121   8.224 -0.7016 -1.0258 -0.7474
  564UDC     C6 6199  17.639  10.168   8.374 -0.0186 -0.2159 -0.4525
  564UDC     C7 6200  17.749  10.268   8.429 -0.2050  0.2824  0.0799
  564UDC     C8 6201  17.731  10.327   8.569  1.3442  0.2774  0.7189
  564UDC     C9 6202  17.860  10.384   8.625  0.4822 -0.5938 -0.1925
  564UDC    C10 6203  17.819  10.442   8.757 -1.1903  0.1862  0.0057
  564UDC    C11 6204  17.741  10.338   8.835  0.7660  0.6768 -0.2014
  565UDC     C1 6205   1.564   2.217   8.644  0.0520 -0.0075  0.6872
  565UDC     C2 6206   1.618   2.115   8.537  0.0914  0.4797  0.6225
  565UDC     C3 6207   1.523   2.007   8.483  0.3676 -0.1753 -0.4451
  565UDC     C4 6208   1.598   1.900   8.396 -0.8858 -0.7249  0.4724
  565UDC     C5 6209   1.538   1.878   8.260 -0.4105  0.0542  0.7833
  565UDC     C6 6210   1.399   1.921   8.234  0.2731  0.1982  0.2060
  565UDC     C7 6211   1.324   1.846   8.126 -0.5916  0.3500  0.2372
  565UDC     C8 6212   1.322   1.923   7.991  1.5912  0.6519 -0.8483
  565UDC     C9 6213   1.183   1.921   7.924 -0.5912 -0.2979 -0.5596
  565UDC    C10 6214   1.157   1.773   7.934 -0.3840  0.8829 -0.0068
  565UDC    C11 6215   1.181   1.717   7.788  0.2995 -0.8974  0.2570
  566UDC     C1 6216  19.695   0.706  16.690 -0.6686  0.4398  0.2253
  566UDC     C2 6217  19.784   0.792  16.781  0.3325  0.1670  0.4688
  566UDC     C3 6218  19.699   0.915  16.825 -0.3699  0.3540 -0.2658
  566UDC     C4 6219  19.779   1.012  16.907 -0.9351 -0.4172 -0.1271
  566UDC     C5 6220  19.689   1.072  17.017  0.0268  0.3223 -0.0435
  566UDC     C6 6221  19.777   1.167  17.111 -0.3037  0.6871  0.1579
  566UDC     C7 6222  19.796   1.099  17.247  0.0035 -0.2022 -0.5998
  566UDC     C8 6223  19.895   1.159  17.354  0.2785 -0.5314  0.6117
  566UDC     C9 6224  19.924   1.070  17.473 -0.2125  0.0167  0.5797
  566UDC    C10 6225  20.038   1.116  17.567 -0.9175 -0.4084  0.0108
  566UDC    C11 6226  20.040   1.113  17.721 -1.0574 -0.0441  0.2093
  567UDC     C1 6227   5.814  10.314  13.382 -0.4521 -0.2961 -0.4318
  567UDC     C2 6228   5.799  10.205  13.272 -0.5976 -0.3207  0.7498
  567UDC     C3 6229   5.910  10.097  13.284 -0.4660  0.1249  0.0806
  567UDC     C4 6230   6.036  10.093  13.193  0.6854 -0.4134  0.5182
  567UDC     C5 6231   6.167  10.156  13.246 -0.0626  0.6133  0.2665
  567UDC     C6 6232   6.159  10.305  13.284  0.5700 -0.5331 -0.1535
  567UDC     C7 6233   6.181  10.420  13.189 -0.3792 -0.0985  0.6706
  567UDC     C8 6234   6.171  10.560  13.258  1.3901  1.4106  0.1522
  567UDC     C9 6235   6.183  10.670  13.154  0.1634 -0.2265 -0.1553
  567UDC    C10 6236   6.145  10.819  13.194  0.0633  0.8569 -0.8746
  567UDC    C11 6237   6.030  10.863  13.283 -0.1099 -0.1881 -0.8329
  568UDC     C1 6238   0.080   6.770   3.750  0.4027 -0.3231  0.1974
  568UDC     C2 6239   0.101   6.697   3.891  0.2243 -0.9962 -0.1725
  568UDC     C3 6240   0.120   6.788   4.013 -0.0831 -0.2576 -0.2672
  568UDC     C4 6241   0.260   6.844   4.042  0.1024  0.1942  0.4398
  568UDC     C5 6242   0.276   6.918   4.171  0.3151 -0.9689 -0.3169
  568UDC     C6 6243   0.279   6.844   4.301  0.1793  0.5849  0.0400
  568UDC     C7 6244   0.342   6.703   4.274  0.4605 -1.3584  0.6615
  568UDC     C8 6245   0.318   6.601   4.388 -0.6525 -0.3991 -0.1802
  568UDC     C9 6246   0.421   6.483   4.367  0.5911 -0.2758 -0.6782
  568UDC    C10 6247   0.382   6.341   4.414 -0.1380  0.2959 -0.3271
  568UDC    C11 6248   0.427   6.231   4.323  0.6863 -0.1987 -0.6480
  569UDC     C1 6249  11.385   1.382   5.910  0.0050  1.1807  0.0103
  569UDC     C2 6250  11.235   1.410   5.935  0.3517 -0.0871  1.8046
  569UDC     C3 6251  11.157   1.305   6.013 -1.0285 -0.8955  0.1505
  569UDC     C4 6252  11.012   1.321   5.967  0.1776  1.6601  0.1712
  569UDC     C5 6253  10.978   1.229   5.849  0.1619 -0.1466  0.7060
  569UDC     C6 6254  10.998   1.079   5.883 -1.0062  0.4135 -0.0810
  569UDC     C7 6255  10.984   0.993   5.753  0.3221  0.9764 -0.9206
  569UDC     C8 6256  11.068   0.866   5.763 -0.7109  0.0950 -0.6675
  569UDC     C9 6257  11.047   0.761   5.876 -0.3266 -1.0738  0.7076
  569UDC    C10 6258  10.903   0.724   5.905  0.0215 -0.0354  0.9406
  569UDC    C11 6259  10.892   0.690   6.052  1.0208  1.4672  0.2285
  570UDC     C1 6260  17.804  12.441  17.391 -1.1022 -0.2586 -0.1313
  570UDC     C2 6261  17.723  12.319  17.425 -0.0142 -0.2937  0.0604
  570UDC     C3 6262  17.701  12.297  17.575  0.0850  0.3653  0.2660
  570UDC     C4 6263  17.593  12.371  17.660 -0.6070  0.5065 -0.2715
  570UDC     C5 6264  17.619  12.374  17.810  0.5412  0.7949 -1.6436
  570UDC     C6 6265  17.490  12.373  17.904  0.4109  0.5319  0.6073
  570UDC     C7 6266  17.515  12.352  18.054  0.3569 -1.1153 -0.9171
  570UDC     C8 6267  17.410  12.313  18.152  0.2178 -0.0054 -0.0438
  570UDC     C9 6268  17.485  12.233  18.255 -0.2860  1.0846  0.7016
  570UDC    C10 6269  17.627  12.283  18.309 -0.0126 -0.2671  0.6461
  570UDC    C11 6270  17.691  12.192  18.414 -0.6182 -0.3915  0.2557
  571UDC     C1 6271  13.362  17.912  10.885 -0.1968 -0.2011 -0.3640
  571UDC     C2 6272  13.482  17.831  10.946  0.2643 -0.2153  0.2333
  571UDC     C3 6273  13.513  17.879  11.090 -0.3339 -0.0145  0.7503
  571UDC     C4 6274  13.648  17.844  11.133  0.2097 -0.1623  1.0642
  571UDC     C5 6275  13.705  17.933  11.239  0.5513 -0.7491  0.6945
  571UDC     C6 6276  13.854  17.900  11.251  0.3034 -0.0211 -0.2201
  571UDC     C7 6277  13.872  17.752  11.300  0.4113 -0.1462 -1.2404
  571UDC     C8 6278  14.008  17.737  11.350  0.6734 -0.5366  0.5296
  571UDC     C9 6279  14.060  17.607  11.409 -0.0373 -1.2206  1.2579
  571UDC    C10 6280  14.206  17.642  11.459  0.3664  0.2356 -0.2885
  571UDC    C11 6281  14.213  17.767  11.545  1.0085  0.0653  0.4303
  572UDC     C1 6282   8.215  14.053   8.007  0.1573 -0.0777  0.7933
  572UDC     C2 6283   8.301  13.968   7.917 -0.1728  2.1930 -0.2191
  572UDC     C3 6284   8.305  13.823   7.987  0.4709 -0.9551  1.3068
  572UDC     C4 6285   8.169  13.765   8.013  0.5593  0.6390  0.4275
  572UDC     C5 6286   8.153  13.609   8.029  0.3367  0.6862  0.5204
  572UDC     C6 6287   8.004  13.573   8.055  0.4684 -0.0865 -0.3856
  572UDC     C7 6288   7.978  13.556   8.204  0.0107 -0.0971 -0.0425
  572UDC     C8 6289   7.843  13.494   8.254  0.8180 -0.0485  0.4358
  572UDC     C9 6290   7.854  13.476   8.407  0.4767  0.0627 -0.4571
  572UDC    C10 6291   7.733  13.415   8.471  0.0015 -0.5122  0.4371
  572UDC    C11 6292   7.599  13.483   8.454  0.8381  0.7463 -0.0211
  573UDC     C1 6293  17.103  17.492  10.186  1.0142 -1.4906  0.4539
  573UDC     C2 6294  17.156  17.447  10.321 -0.5854 -0.8696 -0.6989
  573UDC     C3 6295  17.076  17.524  10.431 -1.0991 -0.5484 -0.2954
  573UDC     C4 6296  17.105  17.460  10.574 -0.9376 -0.4807  0.0684
  573UDC     C5 6297  17.121  17.308  10.578 -1.0089  0.8903  0.6003
  573UDC     C6 6298  17.039  17.221  10.671  0.0688 -0.4999  0.2688
  573UDC     C7 6299  17.010  17.070  10.630 -0.2486  0.3730  0.2453
  573UDC     C8 6300  16.952  17.002  10.748 -0.4180 -0.0597 -0.0453
  573UDC     C9 6301  16.994  16.854  10.766  1.4779  0.6700  0.6881
  573UDC    C10 6302  17.133  16.830  10.719  0.5768 -1.0398 -0.3033
  573UDC    C11 6303  17.168  16.689  10.703 -0.7643 -0.3969 -0.7567
  574UDC     C1 6304  19.368   1.798  11.113  0.9245  0.2253  0.4155
  574UDC     C2 6305  19.405   1.861  11.247 -0.0838  0.9414  0.7814
  574UDC     C3 6306  19.465   2.006  11.256 -1.0249  0.0676 -0.1283
  574UDC     C4 6307  19.514   2.009  11.404 -0.1408  0.2817 -0.0674
  574UDC     C5 6308  19.411   1.937  11.508 -0.5346 -0.1377  0.9361
  574UDC     C6 6309  19.446   1.974  11.648  0.3431 -0.2233 -0.3322
  574UDC     C7 6310  19.600   1.961  11.682  0.2551  0.6732  0.0476
  574UDC     C8 6311  19.655   2.062  11.784  0.8951 -0.0826 -0.1547
  574UDC     C9 6312  19.795   2.022  11.840 -0.4364 -0.0434  0.4347
  574UDC    C10 6313  19.821   2.101  11.963  1.3930 -0.8051 -0.5055
  574UDC    C11 6314  19.736   2.060  12.092  0.8009 -0.3758  0.2510
  575UDC     C1 6315   7.390  13.966   4.921 -1.0764 -0.1781 -0.3942
  575UDC     C2 6316   7.427  14.104   4.967 -0.5150  0.3548 -1.1456
  575UDC     C3 6317   7.321  14.172   5.042  0.5374  0.6538  0.4850
  575UDC     C4 6318   7.182  14.157   4.987  1.0654  0.7851  0.4559
  575UDC     C5 6319   7.087  14.244   5.072  0.2364  0.8905 -0.3555
  575UDC     C6 6320   6.943  14.205   5.041 -0.0899 -0.1901  0.9076
  575UDC     C7 6321   6.843  14.221   5.155 -0.8515  0.7504  0.0960
  575UDC     C8 6322   6.825  14.095   5.244 -0.1339  0.6222  0.2334
  575UDC     C9 6323   6.745  14.085   5.374 -0.4291  0.2180  0.6075
  575UDC    C10 6324   6.721  13.946   5.441  1.0324 -0.7421  0.5983
  575UDC    C11 6325   6.682  13.978   5.592 -0.3954 -0.0242  0.7772
  576UDC     C1 6326  15.748  14.541  10.861 -0.8492  0.6221 -0.1204
  576UDC     C2 6327  15.831  14.441  10.946 -0.5669 -0.2901 -0.0167
  576UDC     C3 6328  15.749  14.308  10.971  0.3852 -0.4638  0.8214
  576UDC     C4 6329  15.660  14.327  11.097 -0.7943 -0.8238  0.2281
  576UDC     C5 6330  15.749  14.256  11.198 -0.0161  0.4619  0.8781
  576UDC     C6 6331  15.693  14.296  11.337 -1.0655 -0.1844  0.0732
  576UDC     C7 6332  15.702  14.450  11.341 -0.0514  0.5345  0.9680
  576UDC     C8 6333  15.641  14.508  11.471 -0.0560  0.3121  0.1412
  576UDC     C9 6334  15.491  14.517  11.472  0.1698  0.4770 -0.4472
  576UDC    C10 6335  15.448  14.451  11.605  0.0024  0.3030  0.1901
  576UDC    C11 6336  15.409  14.565  11.697  0.7727 -0.4658 -0.7774
  577UDC     C1 6337  18.104   6.906   9.216  0.2688  0.2209  0.2872
  577UDC     C2 6338  17.995   6.967   9.122  0.2359  0.9547  0.5104
  577UDC     C3 6339  18.039   6.954   8.981 -0.6835 -0.3304  0.9193
  577UDC     C4 6340  18.144   7.074   8.968  1.0769 -0.0878 -0.7877
  577UDC     C5 6341  18.082   7.202   9.026 -0.1029  0.3323 -0.2427
  577UDC     C6 6342  18.197   7.311   9.025  0.4968  0.8394  0.3054
  577UDC     C7 6343  18.311   7.280   9.117 -0.2487  0.3560  0.9625
  577UDC     C8 6344  18.430   7.380   9.110 -0.2448 -1.1400 -0.2732
  577UDC     C9 6345  18.535   7.336   9.219 -0.3432  0.4105  0.5124
  577UDC    C10 6346  18.474   7.331   9.357 -0.8212  0.0396 -0.1208
  577UDC    C11 6347  18.520   7.220   9.461  0.2165 -0.6760 -0.7422
  578UDC     C1 6348   0.816  19.176  17.543  0.2714 -0.1287 -0.1991
  578UDC     C2 6349   0.720  19.185  17.658  0.1606 -0.9137 -0.4601
  578UDC     C3 6350   0.593  19.278  17.639 -0.1938 -0.8689 -1.0652
  578UDC     C4 6351   0.613  19.420  17.578 -1.0147 -0.1180 -1.0640
  578UDC     C5 6352   0.493  19.481  17.508  0.5952  1.2569  0.5154
  578UDC     C6 6353   0.514  19.617  17.445  1.0249  0.8287 -0.6066
  578UDC     C7 6354   0.367  19.660  17.426  0.2357  0.0150  0.8889
  578UDC     C8 6355   0.336  19.757  17.305 -0.4841  0.1706  0.2832
  578UDC     C9 6356   0.372  19.692  17.172  0.6335  0.2826 -0.1305
  578UDC    C10 6357   0.325  19.801  17.076 -0.1236 -0.2265 -0.1982
  578UDC    C11 6358   0.396  19.922  17.119 -0.6792 -0.2963 -0.9850
  579UDC     C1 6359   2.118  10.323  16.853 -0.1454  0.3249 -0.6918
  579UDC     C2 6360   2.037  10.354  16.728  0.6592  0.4142 -0.4224
  579UDC     C3 6361   2.114  10.391  16.599  0.1773 -0.0339  0.0894
  579UDC     C4 6362   2.174  10.271  16.520  0.7054  0.1693  0.6218
  579UDC     C5 6363   2.190  10.320  16.377  0.0071  0.7925  0.9246
  579UDC     C6 6364   2.075  10.294  16.278  0.7731  0.2490  0.0208
  579UDC     C7 6365   2.082  10.144  16.258 -0.3654  0.3697 -0.1422
  579UDC     C8 6366   2.190  10.081  16.165 -0.3773  0.4022  0.2209
  579UDC     C9 6367   2.132  10.033  16.032 -0.0072  0.7576  0.3465
  579UDC    C10 6368   2.018   9.931  16.055 -0.4193  0.4584  0.5397
  579UDC    C11 6369   1.962   9.874  15.919  1.0171 -1.0203  0.4793
  580UDC     C1 6370   5.236   3.790   9.385 -0.7620  0.2308 -1.0069
  580UDC     C2 6371   5.260   3.943   9.420  0.3110  0.3857  0.5921
  580UDC     C3 6372   5.375   3.989   9.332 -1.0236 -0.6388 -0.2436
  580UDC     C4 6373   5.320   4.066   9.207  0.4171  0.6151  0.0075
  580UDC     C5 6374   5.262   3.994   9.082  0.4631  0.2817  0.5422
  580UDC     C6 6375   5.227   4.093   8.963 -1.6535  0.9543 -0.7472
  580UDC     C7 6376   5.187   4.019   8.831  0.7118  0.5503  0.5114
  580UDC     C8 6377   5.079   3.914   8.845 -0.0118 -0.2224  0.4882
  580UDC     C9 6378   5.059   3.842   8.707 -0.4366 -0.0226 -0.3431
  580UDC    C10 6379   4.915   3.816   8.664 -0.2017  0.6537 -0.4367
  580UDC    C11 6380   4.846   3.686   8.727  0.0813 -1.5132  0.1522
  581UDC     C1 6381  14.726  16.561   6.291 -0.3701 -0.3607  1.3642
  581UDC     C2 6382  14.708  16.693   6.220  0.6327 -1.2149 -0.6430
  581UDC     C3 6383  14.825  16.758   6.143 -0.1886 -0.3900 -0.0325
  581UDC     C4 6384  14.927  16.827   6.238 -0.1223  0.3145  0.5186
  581UDC     C5 6385  15.046  16.914   6.179  0.3992 -0.6414 -0.2132
  581UDC     C6 6386  14.992  17.033   6.099  0.4690 -1.1334 -0.7919
  581UDC     C7 6387  15.092  17.115   6.007  0.2402  0.0610 -0.7745
  581UDC     C8 6388  15.024  17.199   5.896  1.3294 -0.1018  0.7181
  581UDC     C9 6389  15.141  17.259   5.810 -0.3605 -0.3804 -0.3489
  581UDC    C10 6390  15.113  17.336   5.682 -1.0412  0.3023  0.2953
  581UDC    C11 6391  15.061  17.484   5.697 -0.4074  0.1595 -0.5905
  582UDC     C1 6392   2.052  12.064  18.148  1.2860 -0.9249 -0.0392
  582UDC     C2 6393   2.201  12.036  18.181 -1.0246 -0.0196 -0.9121
  582UDC     C3 6394   2.242  12.138  18.287  0.3243  0.1415 -0.0063
  582UDC     C4 6395   2.387  12.190  18.299  0.1105  0.4555 -0.7255
  582UDC     C5 6396   2.423  12.322  18.382 -0.2330  0.2923  0.1086
  582UDC     C6 6397   2.376  12.324  18.524 -0.1461 -0.4525  0.0391
  582UDC     C7 6398   2.402  12.441  18.619  0.3439 -0.4638 -1.1721
  582UDC     C8 6399   2.369  12.438  18.771  0.8616 -1.0242  0.7296
  582UDC     C9 6400   2.463  12.510  18.869  0.7686 -0.2824  1.6695
  582UDC    C10 6401   2.459  12.493  19.024  0.4894 -0.0040  0.6254
  582UDC    C11 6402   2.468  12.344  19.074  0.2645 -0.2927  0.2132
  583UDC     C1 6403   0.193   6.342  18.449  0.0679 -0.6685  0.0679
  583UDC     C2 6404   0.243   6.484  18.420 -1.2077 -0.0486 -0.8437
  583UDC     C3 6405   0.250   6.573  18.549  0.7551  0.5091  0.4523
  583UDC     C4 6406   0.202   6.713  18.503 -0.1874 -0.0347 -0.1542
  583UDC     C5 6407   0.273   6.819  18.596  1.9755 -1.2476  0.3898
  583UDC     C6 6408   0.211   6.961  18.595  0.7056 -0.0950 -0.1663
  583UDC     C7 6409   0.221   7.033  18.462  0.3857  1.7436  1.0551
  583UDC     C8 6410   0.132   7.152  18.464 -0.6176 -0.3533 -1.0892
  583UDC     C9 6411   0.173   7.270  18.556  0.6525 -0.1323  0.0384
  583UDC    C10 6412   0.321   7.310  18.532  0.7901  0.3164 -1.0519
  583UDC    C11 6413   0.396   7.432  18.581  0.2408 -0.9573  0.8106
  584UDC     C1 6414   0.727  14.639  14.095 -0.3255 -0.4217 -0.6807
  584UDC     C2 6415   0.832  14.680  13.991  0.2567  0.0650 -0.4769
  584UDC     C3 6416   0.954  14.589  13.996 -0.2038 -0.1322  0.5600
  584UDC     C4 6417   0.923  14.440  13.982  0.5032  0.6193  0.1435
  584UDC     C5 6418   1.044  14.348  14.008  0.1129  0.1541 -0.4728
  584UDC     C6 6419   1.046  14.226  13.920 -0.0048 -0.1504 -0.4886
  584UDC     C7 6420   1.181  14.154  13.920  1.2720  0.2360 -0.6762
  584UDC     C8 6421   1.154  14.000  13.879 -0.5216 -0.2473  0.2533
  584UDC     C9 6422   1.275  13.918  13.821  0.4692 -0.5523  0.0360
  584UDC    C10 6423   1.225  13.788  13.751 -0.4786 -0.3420  0.6984
  584UDC    C11 6424   1.149  13.695  13.851  1.4817 -0.4965  0.8273
  585UDC     C1 6425   8.243   5.092  12.956 -1.4915 -0.1942  0.6439
  585UDC     C2 6426   8.143   5.118  13.067 -0.1947  0.1101  0.0091
  585UDC     C3 6427   8.145   5.260  13.106  0.2033 -0.8825 -0.5148
  585UDC     C4 6428   8.140   5.385  13.013 -1.4979 -1.0406 -0.5550
  585UDC     C5 6429   8.282   5.434  12.961 -0.2425 -0.6172 -0.3141
  585UDC     C6 6430   8.279   5.532  12.840  0.0676 -0.3325  0.2230
  585UDC     C7 6431   8.254   5.673  12.902 -0.4646  0.3519 -0.1648
  585UDC     C8 6432   8.205   5.800  12.827 -0.8741 -0.1087 -0.0711
  585UDC     C9 6433   8.197   5.921  12.914  0.5057  0.8787 -0.4939
  585UDC    C10 6434   8.134   6.029  12.832 -0.7001  0.0294 -0.2016
  585UDC    C11 6435   8.233   6.121  12.766 -0.4729  0.5807 -0.8327
  586UDC     C1 6436   5.777   8.919   8.998 -0.1267  0.1281 -0.2464
  586UDC     C2 6437   5.911   8.974   9.061 -0.3701  1.0339  0.0369
  586UDC     C3 6438   6.030   8.875   9.057  0.1968  0.4541 -0.1277
  586UDC     C4 6439   6.155   8.929   9.133  0.9461 -0.7157  0.0783
  586UDC     C5 6440   6.283   8.847   9.134 -0.3130 -0.4658 -0.0641
  586UDC     C6 6441   6.386   8.893   9.232  1.5128 -0.1837 -0.6110
  586UDC     C7 6442   6.502   8.796   9.196 -0.0429 -0.0628  0.5142
  586UDC     C8 6443   6.485   8.648   9.235 -1.1556  0.4279  0.1376
  586UDC     C9 6444   6.580   8.549   9.150 -0.8714 -0.3429 -0.5763
  586UDC    C10 6445   6.532   8.538   9.008  1.0397 -0.3544 -0.6649
  586UDC    C11 6446   6.387   8.486   9.002  0.1212  0.2957 -0.3267
  587UDC     C1 6447   1.866  17.794  18.694 -0.6483  0.5193  0.7349
  587UDC     C2 6448   1.813  17.823  18.838  0.6602  1.2085 -0.5159
  587UDC     C3 6449   1.665  17.848  18.840  0.9107  0.7340 -0.1429
  587UDC     C4 6450   1.625  17.948  18.727  0.0254  0.2329  1.0645
  587UDC     C5 6451   1.472  17.971  18.711  0.2373 -0.6745  0.0319
  587UDC     C6 6452   1.417  18.093  18.630 -0.3979 -0.5579 -0.7564
  587UDC     C7 6453   1.396  18.020  18.502  0.4619  0.3823 -0.6817
  587UDC     C8 6454   1.325  18.090  18.383 -0.1330  0.5223 -0.2996
  587UDC     C9 6455   1.286  18.001  18.267 -1.0265  0.5115 -0.5611
  587UDC    C10 6456   1.191  17.892  18.296 -0.5754  0.9865 -1.0288
  587UDC    C11 6457   1.175  17.786  18.185 -1.0181 -0.4494 -0.1644
  588UDC     C1 6458  12.379   0.089   7.435 -0.3093  0.3383 -0.3151
  588UDC     C2 6459  12.421  -0.020   7.540  0.6899  0.4745 -0.1191
  588UDC     C3 6460  12.564   0.011   7.589  0.1880 -0.7051  0.0679
  588UDC     C4 6461  12.628  -0.114   7.664  1.4117 -0.4248  0.2425
  588UDC     C5 6462  12.772  -0.085   7.678 -0.8815 -0.0178 -0.5058
  588UDC     C6 6463  12.814   0.065   7.672  1.4192  1.0612  0.1061
  588UDC     C7 6464  12.964   0.105   7.659 -0.4463  0.0217 -0.3870
  588UDC     C8 6465  13.058   0.024   7.746  0.5812 -0.1154 -0.3783
  588UDC     C9 6466  13.177   0.097   7.807  0.2232  0.4711  0.1940
  588UDC    C10 6467  13.245   0.204   7.716  0.2618  0.0523  0.6315
  588UDC    C11 6468  13.381   0.271   7.760  1.2428 -0.5949 -0.3424
  589UDC     C1 6469   2.070  19.380   5.535 -0.1263 -0.0776 -0.4801
  589UDC     C2 6470   2.031  19.234   5.567 -0.5665 -0.1317 -1.2669
  589UDC     C3 6471   1.875  19.230   5.593 -0.6456  0.1638  0.3557
  589UDC     C4 6472   1.832  19.314   5.721  1.3686  0.5401  0.4928
  589UDC     C5 6473   1.884  19.272   5.865 -0.0218 -0.0199  0.6020
  589UDC     C6 6474   1.874  19.123   5.906 -0.0940 -0.8195  0.9164
  589UDC     C7 6475   1.976  19.017   5.860 -0.2751 -0.8950 -0.5363
  589UDC     C8 6476   1.941  18.871   5.850  0.3123 -0.0869  1.5505
  589UDC     C9 6477   2.052  18.788   5.795 -0.0134  0.2985  0.1076
  589UDC    C10 6478   2.001  18.648   5.775  0.7086  0.5690  1.1307
  589UDC    C11 6479   2.087  18.543   5.712 -0.2724 -0.0879  0.1028
  590UDC     C1 6480   5.921  17.816  17.233  1.1985 -0.5708  1.6297
  590UDC     C2 6481   5.983  17.736  17.340 -0.5389 -1.0313 -1.0180
  590UDC     C3 6482   6.028  17.590  17.306  0.4654 -0.1309 -0.3029
  590UDC     C4 6483   5.924  17.490  17.254 -0.0362  0.0138  0.0109
  590UDC     C5 6484   5.803  17.479  17.344  0.1972 -1.3176  0.0403
  590UDC     C6 6485   5.738  17.341  17.334 -0.7746 -0.9587  0.4104
  590UDC     C7 6486   5.850  17.236  17.306  0.5685 -1.4457  0.4529
  590UDC     C8 6487   5.796  17.100  17.251  0.0926  0.8698  0.8029
  590UDC     C9 6488   5.883  17.040  17.141 -0.5243 -0.5535 -0.6535
  590UDC    C10 6489   5.921  17.115  17.020 -1.5115 -0.0330  0.5168
  590UDC    C11 6490   5.799  17.185  16.946  0.7397  0.0852  0.1872
  591UDC     C1 6491  14.334  19.539  15.286  0.7354 -0.1182 -0.5532
  591UDC     C2 6492  14.301  19.455  15.405  0.1057  0.1236 -1.5220
  591UDC     C3 6493  14.363  19.311  15.392  0.8638 -0.8601 -0.2554
  591UDC     C4 6494  14.333  19.258  15.528  0.0518 -0.2308  0.2378
  591UDC     C5 6495  14.192  19.280  15.581 -0.0225  0.0086  0.5580
  591UDC     C6 6496  14.177  19.224  15.720 -0.5377 -0.2911  0.3476
  591UDC     C7 6497  14.279  19.295  15.800 -0.6480  1.5733  1.9795
  591UDC     C8 6498  14.271  19.267  15.951 -0.2994  1.4389 -0.7949
  591UDC     C9 6499  14.387  19.315  16.037  0.0915  0.2344 -0.0751
  591UDC    C10 6500  14.503  19.218  16.020  0.0054 -0.4512 -1.9851
  591UDC    C11 6501  14.639  19.262  16.089  0.2068 -1.1024 -0.6806
  592UDC     C1 6502  16.590  19.890   9.898 -0.1791  0.4464 -0.0263
  592UDC     C2 6503  16.695  19.954   9.806  0.4126 -0.2770 -0.6230
  592UDC     C3 6504  16.711  19.852   9.683  0.0317 -0.2941 -0.5224
  592UDC     C4 6505  16.854  19.801   9.636  1.5298 -0.1574  0.0474
  592UDC     C5 6506  16.851  19.703   9.506 -0.4514  0.1024  0.6649
  592UDC     C6 6507  16.982  19.616   9.488  0.3663 -0.5080 -1.3601
  592UDC     C7 6508  17.077  19.724   9.433 -0.0107 -0.1206 -0.4471
  592UDC     C8 6509  17.020  19.808   9.322  0.7360 -0.0551 -0.3480
  592UDC     C9 6510  17.124  19.906   9.265 -0.4559  0.1204 -1.3644
  592UDC    C10 6511  17.045  20.038   9.216  0.6113  0.2382 -0.6007
  592UDC    C11 6512  17.127  20.172   9.214 -0.0703 -0.5772  0.0651
  593UDC     C1 6513   2.879  17.312   0.819 -0.6276 -0.4551 -0.1083
  593UDC     C2 6514   2.873  17.321   0.977  0.1812  0.4815 -0.8587
  593UDC     C3 6515   2.744  17.383   1.024  0.1331  0.2117 -0.7500
  593UDC     C4 6516   2.761  17.433   1.171 -0.3311 -0.0809 -1.0080
  593UDC     C5 6517   2.839  17.334   1.253 -0.1121 -0.5343 -1.0134
  593UDC     C6 6518   2.823  17.365   1.408 -0.4881  0.7101 -0.7099
  593UDC     C7 6519   2.904  17.492   1.458 -0.6602 -0.2798 -0.0460
  593UDC     C8 6520   2.921  17.522   1.607 -0.7399 -0.6195  0.4068
  593UDC     C9 6521   2.988  17.650   1.634 -0.8017 -1.3390 -0.0724
  593UDC    C10 6522   2.938  17.795   1.596  0.6142  0.5605 -0.7711
  593UDC    C11 6523   3.027  17.909   1.661  0.1813  1.0137 -0.0660
  594UDC     C1 6524   4.111   8.130  14.533  0.1377  0.2266  0.0156
  594UDC     C2 6525   4.071   8.031  14.421  0.3416  0.8078  0.1989
  594UDC     C3 6526   4.034   8.109  14.293  0.3631 -0.8283 -0.8319
  594UDC     C4 6527   3.944   8.017  14.202 -0.9389  0.0096 -0.0910
  594UDC     C5 6528   4.012   7.885  14.158  0.1066 -0.3843 -0.8318
  594UDC     C6 6529   4.051   7.873  14.012  0.0596 -0.7936  0.4964
  594UDC     C7 6530   4.128   7.992  13.949  0.1668 -0.0220 -0.1832
  594UDC     C8 6531   4.281   7.966  13.975  1.7909  0.4538 -0.8312
  594UDC     C9 6532   4.346   7.832  13.931  0.0938  0.2494  0.4942
  594UDC    C10 6533   4.491   7.804  13.972  0.3061 -0.6100 -0.3978
  594UDC    C11 6534   4.562   7.708  13.877 -0.7948 -0.2508  0.0683
  595UDC     C1 6535   5.234  16.539  14.756  0.6580  0.2773 -1.1711
  595UDC     C2 6536   5.082  16.554  14.726  0.5034  0.1176 -0.2766
  595UDC     C3 6537   5.029  16.436  14.637 -0.2193 -0.1835 -0.4293
  595UDC     C4 6538   5.132  16.348  14.564  0.3613  0.3055  0.3257
  595UDC     C5 6539   5.072  16.220  14.493 -0.7151 -0.7169 -1.1808
  595UDC     C6 6540   5.180  16.145  14.418  0.7445  0.3314  0.1261
  595UDC     C7 6541   5.250  16.203  14.303  1.0950 -0.1889  0.1107
  595UDC     C8 6542   5.385  16.145  14.275 -0.4415 -0.9646  0.6435
  595UDC     C9 6543   5.376  15.996  14.230  0.0284 -0.2195  0.2692
  595UDC    C10 6544   5.509  15.916  14.256  0.3222 -0.8433  0.6120
  595UDC    C11 6545   5.561  15.926  14.402 -0.4478 -0.6883  0.1398
  596UDC     C1 6546  13.057   6.170  11.413 -0.2169  1.3452 -0.5387
  596UDC     C2 6547  13.022   6.299  11.483  0.2368  0.7902 -0.1694
  596UDC     C3 6548  12.997   6.426  11.399 -0.4307 -0.4352 -0.8644
  596UDC     C4 6549  13.117   6.460  11.314 -0.0680 -0.2664  0.9015
  596UDC     C5 6550  13.091   6.602  11.265  0.0961  0.6589  0.5700
  596UDC     C6 6551  12.972   6.631  11.169 -0.5924 -0.7942  0.5764
  596UDC     C7 6552  13.002   6.775  11.128  0.4212 -0.5471 -0.1169
  596UDC     C8 6553  12.904   6.864  11.207  0.0826  0.4167 -1.1682
  596UDC     C9 6554  12.759   6.886  11.162 -0.0228  0.1054 -0.1805
  596UDC    C10 6555  12.724   6.942  11.024  0.0728 -0.1665  0.6230
  596UDC    C11 6556  12.769   7.085  10.998  0.8777  0.1895  0.6364
  597UDC     C1 6557  14.713   3.507   1.246  0.0111 -0.1813  0.2760
  597UDC     C2 6558  14.798   3.475   1.113 -0.0801 -0.8377 -1.3249
  597UDC     C3 6559  14.730   3.366   1.019  0.5024 -0.6479 -1.2501
  597UDC     C4 6560  14.765   3.230   1.080  0.6652 -0.2647  0.8573
  597UDC     C5 6561  14.909   3.179   1.064 -0.7768 -1.3467  0.1204
  597UDC     C6 6562  14.910   3.038   1.119 -0.6571  0.2150  0.2730
  597UDC     C7 6563  15.045   2.960   1.112 -1.1640  0.5212  0.2067
  597UDC     C8 6564  15.034   2.808   1.081 -0.3427 -0.8866  0.0135
  597UDC     C9 6565  14.986   2.736   1.210 -0.6074 -0.1734  0.1556
  597UDC    C10 6566  14.909   2.606   1.221  0.7602  0.5889 -0.6504
  597UDC    C11 6567  14.914   2.536   1.362 -0.3505 -0.8434 -0.1313
  598UDC     C1 6568   9.916   8.612  13.138 -0.6031 -0.8048 -0.4265
  598UDC     C2 6569  10.046   8.675  13.198  0.4228 -1.4314  1.2049
  598UDC     C3 6570  10.094   8.580  13.308 -0.6251 -0.5118 -0.0171
  598UDC     C4 6571  10.160   8.443  13.276 -0.9093 -0.8775 -0.4708
  598UDC     C5 6572  10.310   8.435  13.249  0.9128  0.2316 -0.7797
  598UDC     C6 6573  10.377   8.297  13.236 -0.6059  0.9005 -0.3427
  598UDC     C7 6574  10.528   8.306  13.209  0.5764  0.0214  0.4547
  598UDC     C8 6575  10.605   8.178  13.162 -0.5757 -0.6939 -0.3083
  598UDC     C9 6576  10.746   8.173  13.217 -0.0219 -0.3511  1.8798
  598UDC    C10 6577  10.801   8.049  13.149 -0.3640 -0.4073 -0.3472
  598UDC    C11 6578  10.948   8.051  13.187  0.3917  0.4123 -0.5015
  599UDC     C1 6579  16.999  14.745  17.197  0.0310  0.2917 -0.9213
  599UDC     C2 6580  16.939  14.672  17.080 -0.2278  0.6086 -0.0668
  599UDC     C3 6581  16.999  14.735  16.945  0.0378  0.0795 -0.9619
  599UDC     C4 6582  16.899  14.721  16.833  1.1976 -0.5468  0.1971
  599UDC     C5 6583  16.940  14.646  16.700  0.2447  0.2001 -0.7373
  599UDC     C6 6584  16.959  14.502  16.741  0.2429 -0.1175 -0.0050
  599UDC     C7 6585  16.951  14.408  16.620 -0.0457 -0.4538 -0.0009
  599UDC     C8 6586  16.905  14.265  16.658 -0.2657 -0.5399 -0.6538
  599UDC     C9 6587  17.020  14.167  16.688  0.5511 -0.5224  0.2230
  599UDC    C10 6588  16.974  14.021  16.703  0.9113  0.0949 -0.5533
  599UDC    C11 6589  16.927  13.979  16.570 -0.0014  0.2925  0.0679
  600UDC     C1 6590   0.680   4.155  11.330 -0.3648 -0.3424  0.3391
  600UDC     C2 6591   0.813   4.211  11.389 -0.4755  1.2997  0.5125
  600UDC     C3 6592   0.934   4.108  11.393 -1.0775 -0.8383  0.3034
  600UDC     C4 6593   1.013   4.120  11.256  0.2683 -0.2127 -1.3419
  600UDC     C5 6594   1.074   3.977  11.234  0.2718  0.6233  0.7963
  600UDC     C6 6595   1.219   3.949  11.279 -0.4316  0.2328  1.1349
  600UDC     C7 6596   1.270   3.817  11.230 -1.0359 -0.6837 -0.5729
  600UDC     C8 6597   1.395   3.775  11.308 -0.8049 -0.7720 -0.0545
  600UDC     C9 6598   1.386   3.627  11.361 -0.1458  0.2742  0.1183
  600UDC    C10 6599   1.479   3.576  11.475 -0.3098 -0.5701 -0.2099
  600UDC    C11 6600   1.472   3.436  11.545 -0.7613  0.1233 -0.1187
  601UDC     C1 6601   1.244   6.174  12.294  0.0747 -0.4992 -0.3977
  601UDC     C2 6602   1.351   6.283  12.320 -0.2093 -0.3359 -0.8406
  601UDC     C3 6603   1.498   6.253  12.348  0.9567 -1.1530 -0.9576
  601UDC     C4 6604   1.578   6.367  12.422  1.4751 -0.2083  0.6802
  601UDC     C5 6605   1.682   6.313  12.523 -0.5244  0.1429  0.8378
  601UDC     C6 6606   1.741   6.431  12.605  0.6642 -0.1885 -0.6976
  601UDC     C7 6607   1.887   6.409  12.647 -0.0550 -0.5228  0.2676
  601UDC     C8 6608   1.903   6.256  12.650 -0.8708  0.1254 -0.3659
  601UDC     C9 6609   2.039   6.221  12.716 -0.6405 -0.0487 -1.2759
  601UDC    C10 6610   2.072   6.073  12.718 -0.0584  1.0490 -0.3847
  601UDC    C11 6611   2.210   6.030  12.766 -0.8350  0.7188  1.2510
  602UDC     C1 6612  19.539  18.428   9.862 -0.4452 -0.1776 -1.0064
  602UDC     C2 6613  19.514  18.372  10.007  0.3775 -0.0124 -0.0800
  602UDC     C3 6614  19.565  18.460  10.128 -0.9472  0.8148  2.0803
  602UDC     C4 6615  19.457  18.556  10.184  0.0290 -0.2314 -2.3609
  602UDC     C5 6616  19.499  18.654  10.298  0.3284  0.7712  0.5040
  602UDC     C6 6617  19.552  18.571  10.415 -0.1491  0.9503 -0.2189
  602UDC     C7 6618  19.599  18.664  10.526 -1.6794  0.6241 -0.0920
  602UDC     C8 6619  19.652  18.569  10.638  0.2475 -0.6979 -0.0586
  602UDC     C9 6620  19.802  18.591  10.653  0.1046 -1.0289 -0.1513
  602UDC    C10 6621  19.897  18.473  10.684  0.6583  0.7492 -0.4026
  602UDC    C11 6622  20.038  18.488  10.635  0.3667  0.8643 -0.5753
  603UDC     C1 6623  16.099   7.665  15.262  0.3686  0.8757 -0.1277
  603UDC     C2 6624  16.200   7.782  15.260  0.2243  0.5951 -0.5247
  603UDC     C3 6625  16.279   7.791  15.393  0.3999  0.8212  0.6148
  603UDC     C4 6626  16.380   7.683  15.424 -0.2420 -0.0086 -0.0839
  603UDC     C5 6627  16.481   7.694  15.543 -0.1990  0.7608  0.2395
  603UDC     C6 6628  16.562   7.829  15.549  1.9287 -0.6724 -0.4628
  603UDC     C7 6629  16.657   7.880  15.447  0.1219  0.1831 -0.7962
  603UDC     C8 6630  16.709   8.023  15.466  0.6612 -0.3336  0.7480
  603UDC     C9 6631  16.810   8.075  15.366 -0.0863  0.3872 -0.0346
  603UDC    C10 6632  16.754   8.203  15.319 -0.2524 -0.5796  0.0625
  603UDC    C11 6633  16.820   8.263  15.187 -0.0138  0.7006 -0.0110
  604UDC     C1 6634   0.458  17.070   1.822  0.5012  0.0533 -0.6237
  604UDC     C2 6635   0.612  17.068   1.816 -0.4174  0.2736  0.4161
  604UDC     C3 6636   0.687  17.125   1.686  0.6953  0.6100 -0.2360
  604UDC     C4 6637   0.840  17.132   1.698  0.2614  0.1045 -0.4745
  604UDC     C5 6638   0.910  17.004   1.745  0.2265 -0.4557 -0.5456
  604UDC     C6 6639   1.057  16.998   1.722 -0.8626  0.3701 -0.2810
  604UDC     C7 6640   1.127  17.133   1.725 -0.7970  0.2355 -0.6421
  604UDC     C8 6641   1.278  17.109   1.747 -0.2687 -0.5733  0.2636
  604UDC     C9 6642   1.355  17.240   1.787  1.2428  1.1729  0.8480
  604UDC    C10 6643   1.504  17.249   1.752  0.6917 -0.8981  0.3849
  604UDC    C11 6644   1.569  17.387   1.754 -0.9022  0.0931  1.0427
  605UDC     C1 6645   7.743   6.531   5.956 -0.5539  0.6194  0.5371
  605UDC     C2 6646   7.598   6.567   5.949  0.2408 -0.8758 -0.0379
  605UDC     C3 6647   7.487   6.456   5.941 -0.2117  0.0569 -0.5591
  605UDC     C4 6648   7.365   6.478   6.024 -0.0891  0.1922  0.0754
  605UDC     C5 6649   7.380   6.407   6.164 -0.6255 -0.0498  0.4860
  605UDC     C6 6650   7.397   6.254   6.136  0.6042 -0.1012 -0.2476
  605UDC     C7 6651   7.471   6.167   6.241  0.3150  1.5308 -0.2015
  605UDC     C8 6652   7.620   6.188   6.270  0.5799  0.5540 -1.0211
  605UDC     C9 6653   7.645   6.258   6.401  0.1275 -1.0033 -0.3502
  605UDC    C10 6654   7.797   6.265   6.416 -0.4623 -0.0404 -0.1836
  605UDC    C11 6655   7.874   6.292   6.283 -0.5977  0.0436  0.0924
  606UDC     C1 6656  13.673  10.532  16.398 -0.7768 -0.0564 -0.1986
  606UDC     C2 6657  13.577  10.415  16.380  0.8604 -0.2219  0.1027
  606UDC     C3 6658  13.430  10.436  16.439 -0.1362 -0.0021 -0.5629
  606UDC     C4 6659  13.353  10.567  16.415 -1.0707  0.4076  0.2438
  606UDC     C5 6660  13.203  10.574  16.454 -1.1028  0.4284 -0.0423
  606UDC     C6 6661  13.163  10.718  16.481  0.3482  0.7561 -0.5325
  606UDC     C7 6662  13.007  10.740  16.481  1.0820 -0.1165 -0.0071
  606UDC     C8 6663  12.951  10.886  16.503  0.4029  0.4668 -1.1751
  606UDC     C9 6664  13.055  10.984  16.560  0.1955  0.8608 -0.2424
  606UDC    C10 6665  13.113  11.081  16.460 -0.0421 -0.7230 -0.1164
  606UDC    C11 6666  13.019  11.190  16.419 -0.1305 -0.1944  0.1109
  607UDC     C1 6667   0.510  16.512   2.064 -0.1923  0.5732  0.2628
  607UDC     C2 6668   0.395  16.409   2.056  0.4743  0.7554 -1.0073
  607UDC     C3 6669   0.324  16.368   2.194 -1.2118  0.6203  0.7798
  607UDC     C4 6670   0.219  16.259   2.175  0.3226  0.0773 -0.1218
  607UDC     C5 6671   0.081  16.326   2.167  0.2931 -0.2904 -0.3100
  607UDC     C6 6672  -0.033  16.228   2.183  0.1375 -1.0999 -0.0655
  607UDC     C7 6673  -0.154  16.309   2.136 -0.2895 -1.3584 -0.0450
  607UDC     C8 6674  -0.259  16.247   2.043 -0.7570  0.1502 -0.0701
  607UDC     C9 6675  -0.411  16.277   2.051  0.4436  0.1550 -0.9686
  607UDC    C10 6676  -0.482  16.167   1.971 -0.3729  0.2535 -0.1866
  607UDC    C11 6677  -0.629  16.188   1.952  0.7040 -1.1763 -0.6704
  608UDC     C1 6678   1.283  12.360   0.443 -0.1524  0.0819 -0.0845
  608UDC     C2 6679   1.215  12.387   0.576 -0.6273  0.5696 -0.2420
  608UDC     C3 6680   1.180  12.255   0.662  0.2328 -0.2837  0.5468
  608UDC     C4 6681   1.157  12.319   0.801 -0.6780 -0.3181  0.8058
  608UDC     C5 6682   1.061  12.243   0.891 -0.0035 -0.6070  0.7010
  608UDC     C6 6683   0.977  12.338   0.980  0.4825 -0.2798 -0.5326
  608UDC     C7 6684   1.047  12.414   1.091 -0.3871  0.3976 -0.7588
  608UDC     C8 6685   0.957  12.477   1.202  0.8604  1.0515  0.0808
  608UDC     C9 6686   0.838  12.562   1.157 -0.4849  0.4213  0.0726
  608UDC    C10 6687   0.756  12.637   1.264  0.1623  0.1149  0.1360
  608UDC    C11 6688   0.624  12.691   1.204  0.2168 -0.2268 -0.6589
  609UDC     C1 6689   4.972   9.437  16.827 -0.4226 -0.1515  0.6313
  609UDC     C2 6690   4.973   9.579  16.887  0.1036  0.7108  1.2238
  609UDC     C3 6691   5.017   9.608  17.033  0.6474  0.3143 -0.7708
  609UDC     C4 6692   5.163   9.613  17.074 -0.3617  0.5543 -0.7807
  609UDC     C5 6693   5.231   9.751  17.052 -0.5396 -0.0323 -1.0609
  609UDC     C6 6694   5.281   9.808  16.920  0.9231  1.1124 -0.0396
  609UDC     C7 6695   5.333   9.688  16.848 -0.5508  0.3709 -0.2353
  609UDC     C8 6696   5.436   9.715  16.741 -0.2367  1.0751  0.1685
  609UDC     C9 6697   5.564   9.630  16.731  0.0916  0.6272  0.5926
  609UDC    C10 6698   5.569   9.517  16.626 -0.3060  0.1066 -0.2101
  609UDC    C11 6699   5.576   9.554  16.478 -0.2669  0.0634  0.0048
  610UDC     C1 6700   1.281   5.724  18.346  0.6570  0.4933  0.6001
  610UDC     C2 6701   1.401   5.808  18.308 -0.0873  0.1878  0.1043
  610UDC     C3 6702   1.515   5.798  18.415 -0.5468  0.0183  0.9685
  610UDC     C4 6703   1.634   5.876  18.352 -0.0960  0.0010  0.1359
  610UDC     C5 6704   1.719   5.932  18.465 -1.2159 -0.3411  0.2009
  610UDC     C6 6705   1.865   5.875  18.456  0.2704 -0.5023 -0.5286
  610UDC     C7 6706   1.965   5.945  18.554 -0.6215  0.1189 -0.6943
  610UDC     C8 6707   1.900   6.008  18.679 -0.5143 -1.6481  0.5431
  610UDC     C9 6708   2.008   6.094  18.755 -0.0766 -0.1969  0.4905
  610UDC    C10 6709   1.957   6.184  18.857 -0.4474  0.0563 -0.6248
  610UDC    C11 6710   2.071   6.289  18.890  0.6584  0.1609  0.3984
  611UDC     C1 6711   9.497  11.777   9.985 -0.8119 -0.1166  1.0299
  611UDC     C2 6712   9.620  11.680   9.995  1.3850 -0.6832  0.3981
  611UDC     C3 6713   9.708  11.711  10.111  0.7917  0.1665  0.3337
  611UDC     C4 6714   9.833  11.627  10.116  0.5545  1.4344 -0.5143
  611UDC     C5 6715   9.922  11.608  10.241  1.2564  0.3360 -0.1236
  611UDC     C6 6716  10.050  11.524  10.215  0.9721  0.4206 -0.0955
  611UDC     C7 6717  10.108  11.473  10.349 -0.7416  0.2760  0.3709
  611UDC     C8 6718  10.224  11.374  10.339  0.3939  0.2116  0.5595
  611UDC     C9 6719  10.232  11.251  10.433  0.3188  0.1300 -0.5740
  611UDC    C10 6720  10.285  11.288  10.578 -0.0760  0.3215  0.6025
  611UDC    C11 6721  10.261  11.188  10.693 -1.0937 -0.5838 -0.2586
  612UDC     C1 6722  16.972   3.189   4.534 -1.4197  0.4411 -0.9044
  612UDC     C2 6723  16.948   3.158   4.385  0.4176  1.0452  0.0926
  612UDC     C3 6724  16.805   3.115   4.349  0.1108  0.1768 -0.0247
  612UDC     C4 6725  16.814   3.037   4.210 -0.5946 -0.6901 -0.6191
  612UDC     C5 6726  16.876   3.149   4.117  0.6872  0.9014  0.5977
  612UDC     C6 6727  16.847   3.123   3.966  0.5604 -1.2721 -1.0939
  612UDC     C7 6728  16.941   3.027   3.894  0.1701 -0.4747  0.6139
  612UDC     C8 6729  17.081   3.075   3.877 -0.7692 -0.2283 -0.1584
  612UDC     C9 6730  17.192   2.978   3.825  1.5565  0.4720 -0.8151
  612UDC    C10 6731  17.221   2.848   3.910  0.5412 -0.4280 -0.8699
  612UDC    C11 6732  17.246   2.732   3.803 -0.4011 -0.4757  0.0628
  613UDC     C1 6733  19.731   1.916   2.336  0.1586 -0.0679 -1.4560
  613UDC     C2 6734  19.860   1.985   2.296  0.1130 -0.1785  0.3827
  613UDC     C3 6735  19.921   1.928   2.177 -0.4699 -0.4203  0.0304
  613UDC     C4 6736  20.036   2.000   2.100  0.7049 -0.1634  1.3888
  613UDC     C5 6737  20.008   1.974   1.954 -1.3770 -1.0135 -0.5961
  613UDC     C6 6738  20.115   2.033   1.855  0.2193  0.7626 -0.8179
  613UDC     C7 6739  20.134   1.947   1.727  0.6223 -0.3733  0.3399
  613UDC     C8 6740  20.006   1.963   1.651 -1.2247 -0.1004 -0.2222
  613UDC     C9 6741  20.006   1.860   1.536 -0.1365  0.0258 -0.5892
  613UDC    C10 6742  20.009   1.717   1.590 -0.5414 -1.2155 -0.2252
  613UDC    C11 6743  20.006   1.598   1.496 -0.0388  0.6430 -0.2810
  614UDC     C1 6744  16.284   7.968  13.612  0.7721  0.2142 -0.1531
  614UDC     C2 6745  16.305   8.065  13.497  0.6497 -0.4888  0.4510
  614UDC     C3 6746  16.227   8.023  13.367  0.5879 -0.1126 -0.5266
  614UDC     C4 6747  16.250   8.124  13.249 -0.3502  0.8130  0.5534
  614UDC     C5 6748  16.143   8.122  13.142  0.4488 -0.0189 -0.3047
  614UDC     C6 6749  16.120   7.985  13.078 -0.9813 -0.4359  0.2213
  614UDC     C7 6750  16.015   7.995  12.958  0.1490 -0.8365 -0.6793
  614UDC     C8 6751  15.903   8.102  12.954 -0.0110 -0.4476 -0.3863
  614UDC     C9 6752  15.807   8.120  12.837  0.3039 -0.6084 -0.1681
  614UDC    C10 6753  15.873   8.169  12.701  0.7596  0.1966 -0.9753
  614UDC    C11 6754  15.916   8.319  12.698 -0.4095  0.3490  0.6681
  615UDC     C1 6755   6.679  18.224   3.237 -0.2343  0.2080  0.0317
  615UDC     C2 6756   6.663  18.223   3.389  0.6182  0.6145 -0.6578
  615UDC     C3 6757   6.770  18.296   3.467  0.0254  0.1011  0.0743
  615UDC     C4 6758   6.897  18.214   3.508 -0.2297 -0.8731 -1.2813
  615UDC     C5 6759   6.994  18.308   3.591 -0.7043 -0.0396  0.2126
  615UDC     C6 6760   7.141  18.257   3.620  0.9095 -0.1254 -0.3652
  615UDC     C7 6761   7.246  18.335   3.709  0.7161 -0.2497 -0.0325
  615UDC     C8 6762   7.376  18.366   3.628  0.5705 -0.5786  0.3583
  615UDC     C9 6763   7.461  18.462   3.727  0.0473  1.1429  0.4034
  615UDC    C10 6764   7.608  18.461   3.678 -0.2198  0.0026  0.0489
  615UDC    C11 6765   7.696  18.562   3.754 -0.3340  0.3419  0.3532
  616UDC     C1 6766  19.942  10.486  15.974  0.2057 -0.4213 -0.2625
  616UDC     C2 6767  19.808  10.448  16.047  0.5312 -0.1630 -0.1679
  616UDC     C3 6768  19.725  10.356  15.964  0.1067 -0.3581  0.8869
  616UDC     C4 6769  19.581  10.340  16.017 -0.3871  1.0355  0.5768
  616UDC     C5 6770  19.483  10.456  16.014  0.1429  0.1262 -0.6226
  616UDC     C6 6771  19.341  10.416  16.065  0.5379  0.2791 -1.2493
  616UDC     C7 6772  19.354  10.274  16.126  0.3857 -0.4394  0.2484
  616UDC     C8 6773  19.216  10.198  16.093  0.3494  0.1130 -0.3436
  616UDC     C9 6774  19.145  10.149  16.217 -0.3562 -0.7031 -0.7939
  616UDC    C10 6775  19.229  10.020  16.261  0.1030 -0.0239  0.3647
  616UDC    C11 6776  19.156   9.896  16.312  0.6086 -0.7537  0.1837
  617UDC     C1 6777  16.673   7.146   1.762 -0.7383 -0.1837  0.3090
  617UDC     C2 6778  16.619   7.047   1.651  0.0267  0.5909 -1.0606
  617UDC     C3 6779  16.664   6.889   1.665  0.7859  0.2011 -1.9537
  617UDC     C4 6780  16.550   6.800   1.600 -0.6230 -0.1212  0.2948
  617UDC     C5 6781  16.519   6.675   1.681 -1.3828 -0.1974  1.2311
  617UDC     C6 6782  16.454   6.562   1.591 -0.3977  1.3188  0.3610
  617UDC     C7 6783  16.516   6.429   1.635  0.5818 -0.0799 -0.0853
  617UDC     C8 6784  16.663   6.402   1.581  0.2871 -1.2942  0.6670
  617UDC     C9 6785  16.738   6.280   1.638  0.8948  0.8579 -0.3210
  617UDC    C10 6786  16.844   6.275   1.752  1.2226  0.4755 -0.5086
  617UDC    C11 6787  16.847   6.409   1.839 -0.6584  0.7318 -0.2561
  618UDC     C1 6788   8.616   9.283   2.736  0.5779  0.6972 -0.6897
  618UDC     C2 6789   8.502   9.175   2.712  0.2251  0.0133  0.8685
  618UDC     C3 6790   8.516   9.034   2.776  0.3592  0.1072 -0.0657
  618UDC     C4 6791   8.524   9.049   2.932  0.0372  0.1824 -0.1084
  618UDC     C5 6792   8.400   8.981   2.992  0.0799 -0.5940  0.1938
  618UDC     C6 6793   8.293   9.092   3.006  0.0151 -0.6565  1.5208
  618UDC     C7 6794   8.156   9.029   3.068 -0.2374 -0.1012 -0.4194
  618UDC     C8 6795   8.014   9.091   3.082  0.2175 -0.5905  0.7338
  618UDC     C9 6796   7.960   9.118   2.936  0.2579 -0.1433  0.4652
  618UDC    C10 6797   7.821   9.182   2.931 -0.3714 -0.0767 -0.3255
  618UDC    C11 6798   7.833   9.337   2.914 -0.2353 -0.3126 -0.1640
  619UDC     C1 6799  18.134  14.034   3.011  0.1651 -0.8786  0.8880
  619UDC     C2 6800  18.238  13.952   2.931  0.4430 -0.1914 -1.1273
  619UDC     C3 6801  18.358  13.932   3.023 -1.5302 -0.0801  0.0838
  619UDC     C4 6802  18.427  14.074   3.040  0.4641 -0.8611  0.3046
  619UDC     C5 6803  18.550  14.073   3.132  0.0433 -0.4159 -0.9399
  619UDC     C6 6804  18.617  14.210   3.165  0.2122  0.0342 -0.4996
  619UDC     C7 6805  18.739  14.183   3.254 -0.0070  0.2799 -0.7305
  619UDC     C8 6806  18.798  14.303   3.329 -0.3035 -0.0227  0.4097
  619UDC     C9 6807  18.702  14.368   3.432 -0.4836 -0.2177  0.0949
  619UDC    C10 6808  18.673  14.519   3.408 -0.3928 -0.1671  0.4220
  619UDC    C11 6809  18.600  14.563   3.536  0.8593  0.1402  0.1062
  620UDC     C1 6810  12.278  14.356  13.542 -0.2662  0.4233 -0.7411
  620UDC     C2 6811  12.148  14.276  13.551 -0.2573  0.1921 -0.6302
  620UDC     C3 6812  12.168  14.137  13.502 -0.0622 -0.0478 -0.0531
  620UDC     C4 6813  12.044  14.060  13.471  0.4363 -0.9289 -0.5546
  620UDC     C5 6814  12.068  13.916  13.439  0.2379  0.2548  1.9344
  620UDC     C6 6815  11.947  13.829  13.390  0.5567  0.1833 -0.4829
  620UDC     C7 6816  11.858  13.791  13.510 -0.5540  0.2784 -0.4744
  620UDC     C8 6817  11.744  13.688  13.513 -0.5989 -1.3810 -0.6456
  620UDC     C9 6818  11.629  13.734  13.432  0.8840 -0.5092 -1.1488
  620UDC    C10 6819  11.503  13.649  13.456  0.5875 -0.2793 -1.5529
  620UDC    C11 6820  11.365  13.723  13.454 -0.7944  0.4152  0.4238
  621UDC     C1 6821   2.407  12.717   7.529 -0.9865  0.5292  0.4059
  621UDC     C2 6822   2.405  12.611   7.410  0.9371  0.9494 -0.5776
  621UDC     C3 6823   2.310  12.496   7.428 -0.4713 -0.0358 -0.0575
  621UDC     C4 6824   2.286  12.405   7.311  0.0308 -0.1717  1.0708
  621UDC     C5 6825   2.137  12.396   7.268 -0.5347 -0.3251 -1.7459
  621UDC     C6 6826   2.108  12.305   7.145  0.3304 -0.7908  0.1929
  621UDC     C7 6827   1.973  12.306   7.066  0.5899  0.3922 -0.4563
  621UDC     C8 6828   1.944  12.226   6.940 -0.0032 -0.3893  0.0465
  621UDC     C9 6829   2.040  12.254   6.819 -0.6060 -0.5636  0.9518
  621UDC    C10 6830   1.996  12.192   6.686 -0.0028 -0.6100  0.1476
  621UDC    C11 6831   1.844  12.230   6.657  0.9954  0.9510 -0.5971
  622UDC     C1 6832   7.724  15.740  17.242  0.3170 -0.1252  0.9438
  622UDC     C2 6833   7.858  15.724  17.312 -1.0705 -0.2833  0.1660
  622UDC     C3 6834   7.869  15.768  17.461  0.7527  0.4370  0.9741
  622UDC     C4 6835   7.805  15.671  17.568  0.1638 -0.7919  0.4283
  622UDC     C5 6836   7.846  15.722  17.712  0.7141 -1.1021 -0.6966
  622UDC     C6 6837   7.804  15.863  17.755 -0.4964 -0.2398 -0.2017
  622UDC     C7 6838   7.667  15.835  17.820 -0.6384  0.7636  1.7523
  622UDC     C8 6839   7.557  15.805  17.719  0.3102  0.1242 -1.1049
  622UDC     C9 6840   7.510  15.947  17.686  0.2421  0.1865  1.0963
  622UDC    C10 6841   7.493  15.975  17.535 -0.1610  0.6416 -0.4397
  622UDC    C11 6842   7.417  16.101  17.489  0.7177 -0.7571 -0.6373
  623UDC     C1 6843  17.347   2.656  15.101 -0.5043  0.3151 -0.1640
  623UDC     C2 6844  17.359   2.563  14.981  0.2967 -0.0451  0.3734
  623UDC     C3 6845  17.210   2.547  14.958  1.1368  0.5044 -1.6907
  623UDC     C4 6846  17.154   2.449  15.066  0.1133 -1.1906  0.3190
  623UDC     C5 6847  17.126   2.323  14.992 -0.9613  1.0562 -0.3526
  623UDC     C6 6848  17.053   2.213  15.079 -0.2713 -0.3522  1.3546
  623UDC     C7 6849  17.025   2.091  15.001 -0.0569  0.9092  1.3338
  623UDC     C8 6850  16.918   2.113  14.887 -0.9061  0.1559 -0.0048
  623UDC     C9 6851  16.887   1.989  14.797  0.0868 -1.2162 -0.2340
  623UDC    C10 6852  16.947   1.875  14.896 -0.0652 -0.3508  0.5149
  623UDC    C11 6853  16.976   1.745  14.809 -0.7435 -0.9367 -0.4999
  624UDC     C1 6854   0.181   7.240  17.940 -0.7710  0.1318  0.4100
  624UDC     C2 6855   0.297   7.250  17.848 -0.4685  0.1540 -0.9833
  624UDC     C3 6856   0.350   7.105  17.833 -1.3162  0.1573  0.3282
  624UDC     C4 6857   0.458   7.072  17.724  0.0246  0.5911  0.4417
  624UDC     C5 6858   0.396   7.120  17.591  0.5967  1.0204 -0.0341
  624UDC     C6 6859   0.262   7.058  17.540 -0.0159 -0.0872 -0.4173
  624UDC     C7 6860   0.175   7.153  17.444 -0.1110  0.6197  0.3337
  624UDC     C8 6861   0.255   7.177  17.318  0.1675 -0.6933 -0.1018
  624UDC     C9 6862   0.176   7.253  17.216  0.1166  0.0433  0.1915
  624UDC    C10 6863   0.269   7.292  17.099  0.5561 -0.0491  0.2995
  624UDC    C11 6864   0.213   7.376  16.978  0.3007 -1.1080 -0.5067
  625UDC     C1 6865   1.328   7.257   7.878 -0.4592  0.6240 -0.3594
  625UDC     C2 6866   1.356   7.380   7.789 -0.0151  0.0316  0.2017
  625UDC     C3 6867   1.251   7.433   7.690 -0.0309 -0.7087  0.2204
  625UDC     C4 6868   1.124   7.351   7.688  0.8719  0.3138 -0.5144
  625UDC     C5 6869   1.001   7.441   7.713 -0.0726 -0.0856  0.0743
  625UDC     C6 6870   0.852   7.383   7.711 -0.3075  0.2569  0.2507
  625UDC     C7 6871   0.752   7.486   7.642 -1.3043  1.0286 -0.3570
  625UDC     C8 6872   0.604   7.481   7.664  1.0921 -0.7440 -0.2564
  625UDC     C9 6873   0.554   7.339   7.650  0.4007 -0.1025 -0.2246
  625UDC    C10 6874   0.423   7.324   7.737  0.2504  1.2173 -0.4512
  625UDC    C11 6875   0.352   7.194   7.703  0.3955  0.7689  0.0185
  626UDC     C1 6876   2.266   5.370   6.276  0.6646 -0.2499  0.1000
  626UDC     C2 6877   2.342   5.431   6.158  0.6314 -1.2682 -0.7867
  626UDC     C3 6878   2.248   5.556   6.124  1.3279  0.2144  0.1308
  626UDC     C4 6879   2.238   5.650   6.246  0.7313  0.1010 -0.2486
  626UDC     C5 6880   2.106   5.731   6.224 -0.1331  0.2042  0.1730
  626UDC     C6 6881   2.114   5.857   6.316  0.5971  0.0931 -0.1039
  626UDC     C7 6882   2.057   5.988   6.269  0.2144 -0.3483 -0.5620
  626UDC     C8 6883   2.024   6.083   6.377  0.0672 -0.5792 -0.6529
  626UDC     C9 6884   1.973   6.225   6.337 -0.1509  0.4362  0.2790
  626UDC    C10 6885   2.080   6.303   6.248 -0.7699 -0.2346 -0.1949
  626UDC    C11 6886   2.046   6.442   6.193  0.3351 -0.0928  0.5955
  627UDC     C1 6887  19.766   4.759   3.581 -0.3721  0.2323  0.5239
  627UDC     C2 6888  19.729   4.872   3.683  0.0872  0.1955 -0.3982
  627UDC     C3 6889  19.585   4.921   3.652 -0.1137 -0.8987 -0.3873
  627UDC     C4 6890  19.503   4.973   3.771 -0.3628 -0.4159 -0.8262
  627UDC     C5 6891  19.363   5.039   3.724 -1.0401 -0.4556  0.6260
  627UDC     C6 6892  19.353   5.179   3.665  0.6123 -1.1730 -0.5946
  627UDC     C7 6893  19.209   5.240   3.665  0.7605  0.1251  0.8130
  627UDC     C8 6894  19.176   5.343   3.559 -0.0589 -0.0382  0.1991
  627UDC     C9 6895  19.205   5.495   3.590  0.0244  0.6493  0.3402
  627UDC    C10 6896  19.152   5.606   3.495  0.5245  0.3122 -0.4936
  627UDC    C11 6897  19.219   5.625   3.360 -0.0316  0.5171 -0.0961
  628UDC     C1 6898  13.350   6.662  13.820  0.5024 -0.5370 -0.2766
  628UDC     C2 6899  13.204   6.690  13.774 -0.7710 -1.0738  0.1671
  628UDC     C3 6900  13.130   6.555  13.751 -1.6478 -0.0789  0.0646
  628UDC     C4 6901  12.984   6.562  13.737  0.0124 -0.1009 -1.4022
  628UDC     C5 6902  12.943   6.669  13.638 -0.1167 -0.5738 -1.3005
  628UDC     C6 6903  12.810   6.728  13.654  0.0987 -0.6317  0.6258
  628UDC     C7 6904  12.724   6.705  13.535 -0.2211  0.0517  0.0742
  628UDC     C8 6905  12.629   6.823  13.519 -0.2853  0.8557 -1.3305
  628UDC     C9 6906  12.495   6.800  13.597 -0.4691  0.4419 -0.1253
  628UDC    C10 6907  12.405   6.925  13.574  0.0815  0.6669  1.1177
  628UDC    C11 6908  12.447   7.039  13.661 -0.0811  1.0650  0.2584
  629UDC     C1 6909  11.325  11.587   7.770  1.3065  0.0322 -0.6645
  629UDC     C2 6910  11.239  11.489   7.687 -0.1205  1.3186 -0.2448
  629UDC     C3 6911  11.238  11.343   7.752  1.0582 -0.4124 -0.4203
  629UDC     C4 6912  11.363  11.267   7.728 -0.5906  0.1406 -0.0425
  629UDC     C5 6913  11.364  11.115   7.736  0.4758  0.1172 -0.3836
  629UDC     C6 6914  11.387  11.046   7.874  0.4192 -0.9975  0.2886
  629UDC     C7 6915  11.403  10.900   7.850 -0.3617  0.0943  0.8049
  629UDC     C8 6916  11.495  10.875   7.730  0.0861  0.6946 -0.0653
  629UDC     C9 6917  11.524  10.733   7.703  0.3964 -0.0736  0.6617
  629UDC    C10 6918  11.388  10.663   7.698 -0.7453  0.3112 -0.0663
  629UDC    C11 6919  11.390  10.519   7.751 -1.0575  0.3476  0.7726
  630UDC     C1 6920   4.600  14.674  17.092 -0.1613  0.6860 -1.0844
  630UDC     C2 6921   4.738  14.698  17.138  0.0420 -0.2871  0.9679
  630UDC     C3 6922   4.790  14.818  17.224 -0.0618 -0.6498  0.4328
  630UDC     C4 6923   4.702  14.860  17.342 -0.1419 -0.4921 -0.2197
  630UDC     C5 6924   4.764  14.986  17.417 -0.4425  0.8700 -1.0681
  630UDC     C6 6925   4.905  14.955  17.470  0.8743  0.4128 -0.1949
  630UDC     C7 6926   4.928  14.823  17.544 -1.1992  0.7451  1.1577
  630UDC     C8 6927   5.065  14.809  17.614  0.7735 -0.4826  0.4040
  630UDC     C9 6928   5.179  14.862  17.531  0.3535  0.0804 -0.0151
  630UDC    C10 6929   5.312  14.841  17.607 -0.6720 -0.0287  0.5244
  630UDC    C11 6930   5.347  14.694  17.616 -0.8634  0.8573 -0.1966
  631UDC     C1 6931   2.246   9.650  12.525 -0.1195  0.9989  1.0170
  631UDC     C2 6932   2.206   9.570  12.652 -0.1127  0.2020  0.1213
  631UDC     C3 6933   2.313   9.477  12.703 -0.6345 -0.2308  0.0339
  631UDC     C4 6934   2.411   9.557  12.789 -1.3538 -0.4880 -0.1032
  631UDC     C5 6935   2.535   9.473  12.823 -0.9518  0.7569 -0.3630
  631UDC     C6 6936   2.507   9.327  12.880  0.5225  0.9105  0.1358
  631UDC     C7 6937   2.463   9.328  13.029  0.2832  0.5676  1.0232
  631UDC     C8 6938   2.473   9.185  13.087 -0.4977  0.2848  0.5789
  631UDC     C9 6939   2.402   9.174  13.227 -0.3605 -0.5111 -0.1400
  631UDC    C10 6940   2.473   9.081  13.326  1.3959  0.1142  0.4461
  631UDC    C11 6941   2.399   9.077  13.468 -0.0875  0.2011  0.1303
  632UDC     C1 6942  15.478  13.103  19.356  0.1261 -0.2996  0.1443
  632UDC     C2 6943  15.451  13.044  19.488  0.5812  0.5923 -0.7578
  632UDC     C3 6944  15.542  12.922  19.514  0.7682  0.9948 -1.0740
  632UDC     C4 6945  15.503  12.805  19.608 -0.1140  0.3292  0.3140
  632UDC     C5 6946  15.609  12.698  19.583 -0.9883 -0.3921 -0.8252
  632UDC     C6 6947  15.741  12.749  19.639 -0.1570 -0.9644 -0.2179
  632UDC     C7 6948  15.849  12.649  19.607 -0.1190  0.2424 -0.1436
  632UDC     C8 6949  15.893  12.629  19.461 -0.5039 -0.3904  0.7114
  632UDC     C9 6950  16.016  12.703  19.428  0.2815 -0.7733 -0.3436
  632UDC    C10 6951  16.054  12.679  19.284 -0.2193  0.7715 -0.5167
  632UDC    C11 6952  16.062  12.521  19.267 -0.8868  0.3833  0.7988
  633UDC     C1 6953  10.905  18.350   0.210 -0.5272 -0.2483  0.5729
  633UDC     C2 6954  10.874  18.487   0.139 -0.0398  0.0471 -0.4538
  633UDC     C3 6955  10.744  18.463   0.056 -0.2854  0.3736  0.2289
  633UDC     C4 6956  10.715  18.591  -0.012 -0.0345  0.0297  0.0542
  633UDC     C5 6957  10.820  18.649  -0.110 -0.4169 -0.5008  0.5805
  633UDC     C6 6958  10.800  18.788  -0.167 -0.4870 -0.0190 -0.9397
  633UDC     C7 6959  10.829  18.895  -0.065  0.2238  0.0494  0.2253
  633UDC     C8 6960  10.831  19.028  -0.135 -0.7491 -0.6545 -0.1840
  633UDC     C9 6961  10.904  19.012  -0.268 -0.8384 -0.3001 -0.1897
  633UDC    C10 6962  11.057  19.003  -0.241 -0.5032 -0.5203 -0.1622
  633UDC    C11 6963  11.140  18.904  -0.330  0.9901 -0.4716  0.9592
  634UDC     C1 6964   3.158  13.863  11.270 -0.4836 -0.1473  0.1291
  634UDC     C2 6965   3.066  13.766  11.346 -0.7939 -0.5002  0.0472
  634UDC     C3 6966   2.920  13.797  11.286  0.7023  0.5324  0.7343
  634UDC     C4 6967   2.864  13.925  11.356  0.1433  0.7842  0.5357
  634UDC     C5 6968   2.855  13.889  11.500  0.0371  0.1566 -0.6788
  634UDC     C6 6969   2.818  14.011  11.579  0.4061  0.6394  0.3508
  634UDC     C7 6970   2.809  14.002  11.736 -0.0985  1.0186  0.6575
  634UDC     C8 6971   2.761  14.130  11.803  0.9575 -0.4694  0.6233
  634UDC     C9 6972   2.734  14.128  11.956  1.1018  0.8790 -0.2967
  634UDC    C10 6973   2.739  14.251  12.038  0.7729 -0.5939 -0.6863
  634UDC    C11 6974   2.680  14.229  12.181  0.7229 -0.2929 -0.6151
  635UDC     C1 6975  12.582  15.943   9.014 -0.2135 -0.1653  0.0659
  635UDC     C2 6976  12.727  15.965   9.062  0.4700 -0.3101 -0.3993
  635UDC     C3 6977  12.758  15.921   9.205 -0.9867 -0.0407  0.2628
  635UDC     C4 6978  12.910  15.932   9.239  0.1151 -0.9227 -0.6557
  635UDC     C5 6979  12.941  15.891   9.378 -0.8742  0.2846  0.1255
  635UDC     C6 6980  12.999  16.009   9.463 -0.1075  0.8968 -0.4198
  635UDC     C7 6981  12.923  16.139   9.446  0.5430  1.6499  0.3203
  635UDC     C8 6982  13.004  16.237   9.516 -0.2379 -1.0131  0.6483
  635UDC     C9 6983  12.907  16.352   9.533 -0.3809 -0.1744  0.3017
  635UDC    C10 6984  12.794  16.333   9.634  0.3549 -1.0906  0.5287
  635UDC    C11 6985  12.726  16.470   9.643  0.1759 -0.2352  0.2257
  636UDC     C1 6986  19.181  18.424   1.684  0.1317 -0.0734  0.5412
  636UDC     C2 6987  19.030  18.438   1.652  1.2367  0.5179 -1.0685
  636UDC     C3 6988  18.984  18.581   1.617  0.0735 -1.1426  0.0286
  636UDC     C4 6989  18.931  18.675   1.731  0.4650 -0.3569 -0.0304
  636UDC     C5 6990  18.814  18.738   1.657 -0.3523 -0.3618  0.4603
  636UDC     C6 6991  18.696  18.756   1.746 -0.7908 -0.9224 -1.1707
  636UDC     C7 6992  18.608  18.877   1.707  0.1824  0.1563  1.6344
  636UDC     C8 6993  18.482  18.901   1.786 -1.2061  0.1433  0.2796
  636UDC     C9 6994  18.399  19.021   1.734 -0.1786  0.1475  0.8111
  636UDC    C10 6995  18.284  19.052   1.842 -0.7648  0.8014 -0.6139
  636UDC    C11 6996  18.171  18.953   1.828 -0.6193  0.4888 -0.8676
  637UDC     C1 6997   1.958  13.100   9.132  0.2349  0.4662 -0.1513
  637UDC     C2 6998   1.893  12.967   9.147  0.3493  0.4198 -0.3561
  637UDC     C3 6999   1.739  12.986   9.157 -0.3215  0.3519 -0.2647
  637UDC     C4 7000   1.678  13.034   9.025 -0.4007 -0.0244  0.5507
  637UDC     C5 7001   1.538  12.964   9.011  1.4047 -0.5177 -0.3161
  637UDC     C6 7002   1.464  13.025   8.889 -0.6175  0.5867 -0.0884
  637UDC     C7 7003   1.469  12.933   8.769  0.0041 -0.1260 -0.0557
  637UDC     C8 7004   1.400  13.000   8.652  0.4109  1.7658  0.0222
  637UDC     C9 7005   1.391  12.887   8.546 -0.6516  0.4320  0.1373
  637UDC    C10 7006   1.309  12.941   8.427  1.2604  0.0109 -0.5449
  637UDC    C11 7007   1.259  12.836   8.324  0.6470  0.0894 -1.3153
  638UDC     C1 7008  11.803  13.071  12.970 -0.1140  0.3286 -0.5297
  638UDC     C2 7009  11.652  13.050  12.941  0.5173  0.5406 -0.5941
  638UDC     C3 7010  11.595  13.005  12.802 -0.1399 -0.0862 -0.1292
  638UDC     C4 7011  11.448  13.036  12.771  0.1032 -1.2062 -0.1892
  638UDC     C5 7012  11.360  12.952  12.860  1.5144  0.0208  0.0196
  638UDC     C6 7013  11.221  12.939  12.793  0.8746  0.4801  0.2022
  638UDC     C7 7014  11.162  12.803  12.841 -0.4281 -0.4922 -0.2195
  638UDC     C8 7015  11.248  12.681  12.882  0.6694 -0.1449  0.1611
  638UDC     C9 7016  11.193  12.570  12.977 -0.1317  0.2936  0.0992
  638UDC    C10 7017  11.054  12.532  12.941 -0.4133 -0.1917  1.7202
  638UDC    C11 7018  11.011  12.397  12.994 -0.1870 -0.8225 -0.8141
  639UDC     C1 7019  18.214   3.294  11.997  0.0544  0.1619  0.7679
  639UDC     C2 7020  18.078   3.231  12.025  0.2998  0.3413 -0.5933
  639UDC     C3 7021  18.076   3.090  12.096  0.1185  0.3686 -1.1467
  639UDC     C4 7022  18.055   3.092  12.250  0.4375  0.6858  0.0242
  639UDC     C5 7023  18.164   3.142  12.345 -0.5824 -0.2013 -0.0167
  639UDC     C6 7024  18.145   3.294  12.364 -0.5125 -0.6334  0.3860
  639UDC     C7 7025  18.282   3.356  12.381  0.4529  0.9690 -0.8883
  639UDC     C8 7026  18.266   3.514  12.375 -0.2386  0.2456 -0.6738
  639UDC     C9 7027  18.400   3.581  12.339 -0.5679 -0.1315 -0.2191
  639UDC    C10 7028  18.440   3.730  12.329 -0.6931 -0.1322 -0.5717
  639UDC    C11 7029  18.469   3.817  12.450  0.0602 -0.6308  0.4573
  640UDC     C1 7030   6.148   9.418   7.172  0.6670 -0.2723 -0.4970
  640UDC     C2 7031   6.189   9.416   7.322 -0.2977  0.2692 -0.3201
  640UDC     C3 7032   6.182   9.556   7.398  0.7343  1.0986  0.6061
  640UDC     C4 7033   6.041   9.624   7.407  0.6903  0.1590  0.2737
  640UDC     C5 7034   6.058   9.779   7.401  1.4128  0.1789  0.0465
  640UDC     C6 7035   5.914   9.840   7.409 -0.1785 -0.1204  1.4813
  640UDC     C7 7036   5.923   9.990   7.439 -0.8542  0.1055  0.1472
  640UDC     C8 7037   5.971  10.012   7.578 -0.9419  0.6493 -0.9211
  640UDC     C9 7038   5.904  10.139   7.631 -1.1484  0.6401  0.3317
  640UDC    C10 7039   5.985  10.230   7.733 -0.5950  0.6715 -0.3126
  640UDC    C11 7040   5.901  10.286   7.848 -0.4274  0.5101  0.4963
  641UDC     C1 7041  19.554  17.871   9.384 -0.1523 -0.7217 -0.0002
  641UDC     C2 7042  19.690  17.841   9.430 -0.7112 -0.1211  0.0215
  641UDC     C3 7043  19.723  17.786   9.572  0.1901 -0.3811  0.0478
  641UDC     C4 7044  19.589  17.772   9.649 -0.2799 -0.3829  1.0797
  641UDC     C5 7045  19.564  17.701   9.781 -1.2094 -0.2884  0.6994
  641UDC     C6 7046  19.422  17.703   9.844 -0.0935 -1.1210  0.7965
  641UDC     C7 7047  19.367  17.827   9.903  1.4670 -0.2373 -0.4962
  641UDC     C8 7048  19.298  17.934   9.812  0.0947  0.6921  0.7266
  641UDC     C9 7049  19.261  18.057   9.892 -0.8700 -0.9483 -0.1992
  641UDC    C10 7050  19.220  18.173   9.806 -0.3154  0.2457  0.9638
  641UDC    C11 7051  19.301  18.224   9.683  0.0171  0.3462 -0.8593
  642UDC     C1 7052  18.817   9.365  16.079 -1.4716  0.9449  0.3644
  642UDC     C2 7053  18.736   9.388  15.953 -0.4103  0.1381 -0.7758
  642UDC     C3 7054  18.653   9.264  15.916 -0.3770  0.2127  0.7990
  642UDC     C4 7055  18.530   9.287  15.823  0.3601 -0.6469 -1.1147
  642UDC     C5 7056  18.433   9.397  15.865  0.0260 -0.4779 -0.8705
  642UDC     C6 7057  18.322   9.444  15.770 -0.5322 -0.5887 -0.2328
  642UDC     C7 7058  18.249   9.569  15.813  0.6628 -0.7570 -0.1747
  642UDC     C8 7059  18.122   9.609  15.733  0.4653 -0.4714 -0.1544
  642UDC     C9 7060  18.000   9.649  15.826 -0.0803  0.2156 -0.3444
  642UDC    C10 7061  17.900   9.693  15.717  0.3284 -0.0256 -0.1117
  642UDC    C11 7062  17.828   9.579  15.648 -0.5137  0.3669  0.0504
  643UDC     C1 7063   0.358   1.838   4.217  0.2319  0.8375 -0.0420
  643UDC     C2 7064   0.449   1.760   4.129 -0.8344  0.4081  0.7187
  643UDC     C3 7065   0.585   1.742   4.197 -0.7485  0.6811  0.0685
  643UDC     C4 7066   0.696   1.685   4.104  0.8614  0.3581 -0.1616
  643UDC     C5 7067   0.642   1.556   4.034 -0.1128  0.3263  0.5718
  643UDC     C6 7068   0.648   1.436   4.135  0.1224 -0.6432  0.8035
  643UDC     C7 7069   0.787   1.397   4.190  1.2038 -1.1922 -0.7582
  643UDC     C8 7070   0.792   1.261   4.263  0.1411 -0.3959  0.3499
  643UDC     C9 7071   0.926   1.186   4.286  0.4267 -0.5031 -0.0979
  643UDC    C10 7072   0.900   1.073   4.391 -0.7791  1.0087  0.3423
  643UDC    C11 7073   0.749   1.042   4.402 -0.7648 -0.2291 -0.4678
  644UDC     C1 7074   9.437  10.399  12.137 -0.3182  0.9636  0.1798
  644UDC     C2 7075   9.468  10.422  12.285  0.0844 -0.5769  0.8964
  644UDC     C3 7076   9.618  10.416  12.310  0.9084  0.3249 -0.4060
  644UDC     C4 7077   9.658  10.266  12.260  1.2219 -0.6835  0.8135
  644UDC     C5 7078   9.641  10.148  12.359  0.3035 -0.9745 -0.2559
  644UDC     C6 7079   9.638  10.009  12.288 -0.0761 -1.1671 -0.6953
  644UDC     C7 7080   9.584   9.892  12.381  1.2166 -0.2776  0.2827
  644UDC     C8 7081   9.670   9.858  12.502  0.1678  0.5115  0.3973
  644UDC     C9 7082   9.595   9.767  12.597  0.5457  0.4689  0.3474
  644UDC    C10 7083   9.540   9.630  12.542  0.2240  0.0465  0.4042
  644UDC    C11 7084   9.433   9.582  12.632 -0.9901 -0.0470  2.2788
  645UDC     C1 7085  15.646   5.234   5.083  0.1810  0.5631  0.6154
  645UDC     C2 7086  15.766   5.175   4.999  0.2025 -0.0936 -0.2070
  645UDC     C3 7087  15.741   5.191   4.846 -0.3181  1.1702  0.2831
  645UDC     C4 7088  15.879   5.161   4.782 -0.3264 -0.4252  0.1893
  645UDC     C5 7089  15.893   5.153   4.631  0.6230  0.2056  0.4178
  645UDC     C6 7090  16.042   5.136   4.603 -1.4123 -0.3965  0.4325
  645UDC     C7 7091  16.073   4.992   4.556  1.7546  0.0486  0.5299
  645UDC     C8 7092  16.212   4.968   4.624  0.7114 -0.0947  0.2273
  645UDC     C9 7093  16.289   4.855   4.553 -0.1423  0.6160  0.0862
  645UDC    C10 7094  16.431   4.822   4.588 -0.4230  0.4468  0.8498
  645UDC    C11 7095  16.421   4.757   4.726 -0.2211 -0.4963 -0.0101
  646UDC     C1 7096  14.681   6.294  18.763 -0.8803 -0.1235  0.5579
  646UDC     C2 7097  14.695   6.308  18.607  0.2407 -0.2786 -0.2827
  646UDC     C3 7098  14.696   6.173  18.529  0.5142 -0.1896 -0.1347
  646UDC     C4 7099  14.710   6.197  18.378  1.1555  0.3656  0.3874
  646UDC     C5 7100  14.709   6.055  18.324  0.3785  0.4092 -0.1192
  646UDC     C6 7101  14.782   6.032  18.193 -0.4967 -0.1356 -0.4634
  646UDC     C7 7102  14.728   6.146  18.103 -1.0387 -0.3809  0.7341
  646UDC     C8 7103  14.800   6.174  17.970  0.7567 -0.1154 -0.3616
  646UDC     C9 7104  14.718   6.255  17.865  0.2726  0.6119 -0.0984
  646UDC    C10 7105  14.743   6.402  17.860 -1.2761 -0.4806  0.5538
  646UDC    C11 7106  14.675   6.498  17.954 -0.0241  0.3289 -0.5614
  647UDC     C1 7107   3.954  19.684  13.988  1.0115  0.0227  1.2256
  647UDC     C2 7108   3.921  19.542  14.015  0.5085  0.8933  0.6295
  647UDC     C3 7109   3.904  19.453  13.886 -0.0390  0.1078  0.5957
  647UDC     C4 7110   4.032  19.367  13.883 -0.5488  0.3080  0.7918
  647UDC     C5 7111   4.074  19.301  13.747  0.2168  0.7251 -0.2529
  647UDC     C6 7112   4.099  19.410  13.644  0.7446 -0.4038 -0.2989
  647UDC     C7 7113   4.181  19.352  13.533 -0.0232 -0.8578  0.4153
  647UDC     C8 7114   4.238  19.454  13.434  0.2353  0.7382 -0.7120
  647UDC     C9 7115   4.378  19.408  13.373  2.1760 -0.8170 -0.3375
  647UDC    C10 7116   4.478  19.407  13.488  0.4053 -0.6535  0.2846
  647UDC    C11 7117   4.625  19.373  13.463  0.3598 -0.0734  0.5673
  648UDC     C1 7118   3.269  14.745   6.809 -0.7539  0.5764 -0.0138
  648UDC     C2 7119   3.261  14.859   6.709  0.0779 -0.3134 -0.6229
  648UDC     C3 7120   3.200  14.982   6.773  0.1167  0.1942 -0.1023
  648UDC     C4 7121   3.303  15.042   6.876 -0.1725 -0.4514 -0.2021
  648UDC     C5 7122   3.240  15.160   6.945 -0.2967 -0.9864 -0.4597
  648UDC     C6 7123   3.299  15.202   7.080 -0.6807 -0.0866  1.1050
  648UDC     C7 7124   3.238  15.290   7.186  1.1993 -0.0947  0.6856
  648UDC     C8 7125   3.245  15.438   7.152  0.6807 -0.4167 -0.1881
  648UDC     C9 7126   3.380  15.503   7.149  0.2500  0.6763 -0.5261
  648UDC    C10 7127   3.404  15.656   7.166 -0.9952  0.0132  0.0214
  648UDC    C11 7128   3.310  15.744   7.078  0.1563  0.0142  0.1153
  649UDC     C1 7129   6.372   2.414   8.593 -0.7575 -0.2165 -0.3498
  649UDC     C2 7130   6.385   2.277   8.656  0.4035 -0.7480  0.8794
  649UDC     C3 7131   6.319   2.162   8.566 -1.0212  0.0709  0.0386
  649UDC     C4 7132   6.173   2.185   8.543  0.7751 -0.0046  0.4364
  649UDC     C5 7133   6.098   2.056   8.488 -1.1513  0.1893  0.8231
  649UDC     C6 7134   6.148   1.982   8.354 -0.7561  0.1539 -0.7197
  649UDC     C7 7135   6.057   1.870   8.310 -0.6105 -0.6566  0.1088
  649UDC     C8 7136   6.120   1.776   8.209  0.1328 -0.4417 -0.3593
  649UDC     C9 7137   6.053   1.640   8.210 -0.0830 -0.2100  0.2085
  649UDC    C10 7138   6.160   1.532   8.170  1.2104 -0.4066 -1.3036
  649UDC    C11 7139   6.104   1.396   8.134  0.5732  0.2916 -1.1795
  650UDC     C1 7140   5.684  16.494   8.088  0.0535 -0.0466 -0.0846
  650UDC     C2 7141   5.776  16.447   7.981  0.6872  0.4460  0.3677
  650UDC     C3 7142   5.856  16.562   7.908  0.4337 -0.3273 -0.9528
  650UDC     C4 7143   5.892  16.682   7.994 -0.3237  0.7377 -0.1611
  650UDC     C5 7144   5.982  16.796   7.934  0.3508  0.2231 -0.2305
  650UDC     C6 7145   5.943  16.837   7.793  0.1748  0.4167 -0.7417
  650UDC     C7 7146   5.815  16.898   7.765  0.7547 -0.5575 -0.0254
  650UDC     C8 7147   5.798  16.907   7.616 -0.5993 -0.4267  0.5385
  650UDC     C9 7148   5.845  16.773   7.549 -0.4120  1.3477 -0.2922
  650UDC    C10 7149   5.742  16.653   7.568  0.0702 -0.0606  0.0030
  650UDC    C11 7150   5.639  16.636   7.447 -0.0261 -0.3606  0.0299
  651UDC     C1 7151  18.872   2.284   4.507 -0.5539 -0.3893  1.0525
  651UDC     C2 7152  18.871   2.432   4.492 -0.0213  0.5634 -0.4706
  651UDC     C3 7153  18.725   2.479   4.500  0.2392  0.0814  0.0072
  651UDC     C4 7154  18.699   2.626   4.467 -0.1253  0.8403  0.0323
  651UDC     C5 7155  18.779   2.711   4.566 -0.5612  0.4970 -0.3296
  651UDC     C6 7156  18.715   2.847   4.542  0.2532 -0.0113 -1.0898
  651UDC     C7 7157  18.790   2.973   4.587  1.1784  0.4725  0.5334
  651UDC     C8 7158  18.863   3.026   4.465  0.2407 -0.4029  0.0311
  651UDC     C9 7159  18.909   3.173   4.465 -0.0461  0.1590  0.3470
  651UDC    C10 7160  18.971   3.235   4.594 -0.0558 -0.5539 -1.1685
  651UDC    C11 7161  19.059   3.353   4.551 -0.0884  0.7579  1.1250
  652UDC     C1 7162  19.472  10.895   4.200  0.4291 -0.8967  0.4226
  652UDC     C2 7163  19.528  10.907   4.057 -0.6672 -0.6262  0.3722
  652UDC     C3 7164  19.678  10.883   4.021  0.2444 -0.2037  0.0983
  652UDC     C4 7165  19.710  10.862   3.871  0.2233  0.8799  0.0489
  652UDC     C5 7166  19.583  10.837   3.792 -0.2556  0.6704  1.0528
  652UDC     C6 7167  19.613  10.781   3.655  0.2660 -0.6658  0.5857
  652UDC     C7 7168  19.498  10.718   3.575  0.1562 -0.1473 -0.3251
  652UDC     C8 7169  19.421  10.611   3.647  1.6268  0.7213  0.3433
  652UDC     C9 7170  19.294  10.551   3.576 -1.2767 -0.3119 -0.6452
  652UDC    C10 7171  19.297  10.404   3.531  0.2423 -1.2790  0.3319
  652UDC    C11 7172  19.398  10.324   3.445  0.7636 -0.4655 -0.6445
  653UDC     C1 7173  14.777   2.114   9.099 -0.5886  0.3452 -0.4623
  653UDC     C2 7174  14.917   2.053   9.068 -0.2708  0.7640  1.0820
  653UDC     C3 7175  14.969   1.959   9.181  1.4827  0.2000 -0.3411
  653UDC     C4 7176  15.095   1.900   9.154  0.2684  0.1836 -0.7910
  653UDC     C5 7177  15.160   1.812   9.264  0.4330 -0.5449  0.7044
  653UDC     C6 7178  15.304   1.760   9.276 -0.8026  0.1600 -0.0658
  653UDC     C7 7179  15.306   1.596   9.274  0.3218 -0.0562  1.0592
  653UDC     C8 7180  15.446   1.538   9.317 -0.0159  0.2502 -0.2649
  653UDC     C9 7181  15.550   1.571   9.207  0.9814  0.7013  0.5423
  653UDC    C10 7182  15.693   1.541   9.240  1.1271  0.1048  0.2416
  653UDC    C11 7183  15.763   1.457   9.132  0.2692  0.7959  0.7110
  654UDC     C1 7184  19.395  12.893  10.295 -0.0495 -0.6275  0.1576
  654UDC     C2 7185  19.330  13.027  10.323  0.6876  0.1793  0.8626
  654UDC     C3 7186  19.409  13.127  10.238  0.3187 -0.5307  1.0250
  654UDC     C4 7187  19.319  13.245  10.209 -0.7257  0.2287  0.5436
  654UDC     C5 7188  19.399  13.366  10.160 -0.0026 -0.4931 -0.4815
  654UDC     C6 7189  19.327  13.498  10.149 -0.3273  0.6707  0.0468
  654UDC     C7 7190  19.414  13.608  10.093 -0.2327  0.5538 -0.6863
  654UDC     C8 7191  19.520  13.660  10.194  1.0000 -0.7343  0.7356
  654UDC     C9 7192  19.612  13.781  10.178 -0.1974 -0.3551  1.0501
  654UDC    C10 7193  19.549  13.923  10.190  0.6805  0.2748  1.1233
  654UDC    C11 7194  19.502  13.978  10.052 -0.7610  0.1749  1.1190
  655UDC     C1 7195   7.147  13.689   6.946  0.2904 -0.2793 -0.6903
  655UDC     C2 7196   7.054  13.805   6.953  0.2190  0.6255  0.8875
  655UDC     C3 7197   7.085  13.911   7.060 -0.7163 -1.1483  0.7094
  655UDC     C4 7198   7.104  13.838   7.195  0.3753 -0.7806  0.3696
  655UDC     C5 7199   7.124  13.942   7.304 -0.1938  0.1958  0.1283
  655UDC     C6 7200   7.122  13.860   7.432  1.0491  0.2258 -0.2098
  655UDC     C7 7201   7.185  13.907   7.554  0.0841  0.0994 -0.4188
  655UDC     C8 7202   7.087  13.991   7.639 -0.6745 -0.0183  0.4464
  655UDC     C9 7203   7.141  14.090   7.744 -0.6782  0.5852  0.3939
  655UDC    C10 7204   7.162  14.239   7.706  0.9089  0.1643  0.8676
  655UDC    C11 7205   7.248  14.259   7.579 -0.1355 -0.7611 -1.2967
  656UDC     C1 7206  12.426   4.547   4.803 -0.6178  0.2733  0.1116
  656UDC     C2 7207  12.415   4.513   4.952  0.6301  0.2630 -0.1143
  656UDC     C3 7208  12.374   4.366   4.987  0.3831 -0.5790 -0.6820
  656UDC     C4 7209  12.368   4.342   5.138  0.0865 -0.4962 -0.4598
  656UDC     C5 7210  12.327   4.208   5.193  0.5725  0.3531 -0.4659
  656UDC     C6 7211  12.328   4.181   5.350 -0.5121 -0.0987  0.0759
  656UDC     C7 7212  12.235   4.069   5.398  1.0338  0.6961 -0.3059
  656UDC     C8 7213  12.220   4.073   5.554 -0.5364  0.7500  0.6260
  656UDC     C9 7214  12.118   3.977   5.608  0.0114 -0.7046  0.3712
  656UDC    C10 7215  12.066   3.984   5.760  0.2643  1.1910  0.5228
  656UDC    C11 7216  12.033   4.133   5.803  0.9857  0.5821  0.2383
  657UDC     C1 7217   3.047  16.618   9.801  1.0908 -0.9112  0.2098
  657UDC     C2 7218   3.020  16.683   9.943  1.7744  0.0303  1.2173
  657UDC     C3 7219   3.098  16.650  10.070  0.3922  0.3527  0.3992
  657UDC     C4 7220   3.221  16.731  10.109  0.3523  0.5370 -0.0436
  657UDC     C5 7221   3.356  16.712  10.027 -0.9345 -0.3211 -0.8202
  657UDC     C6 7222   3.441  16.841  10.052  0.6016  0.5689 -0.5024
  657UDC     C7 7223   3.556  16.833   9.960 -0.6755 -0.6255 -0.1427
  657UDC     C8 7224   3.652  16.950   9.937 -0.3037  0.2620 -0.6920
  657UDC     C9 7225   3.698  16.977   9.795  0.2661  0.4488  0.2751
  657UDC    C10 7226   3.792  17.096   9.790  0.8521 -0.0414 -0.6909
  657UDC    C11 7227   3.739  17.233   9.841 -0.5827 -1.3072 -0.6903
  658UDC     C1 7228  12.340  10.181  13.887 -0.2839  0.5697 -0.5170
  658UDC     C2 7229  12.374  10.072  13.775  0.1615  0.6294 -0.2840
  658UDC     C3 7230  12.281   9.953  13.796 -0.2135 -0.4992 -0.4295
  658UDC     C4 7231  12.145   9.940  13.725 -0.5231  0.0034  0.3049
  658UDC     C5 7232  12.095   9.803  13.679  0.5136  0.0463 -0.0973
  658UDC     C6 7233  11.949   9.798  13.611 -1.2203  0.2923 -0.0877
  658UDC     C7 7234  11.953   9.809  13.462 -0.6794  0.4650 -0.3105
  658UDC     C8 7235  11.827   9.824  13.373  0.0185 -0.1467  1.5095
  658UDC     C9 7236  11.727   9.913  13.444 -0.0216  0.7918  1.0008
  658UDC    C10 7237  11.586   9.919  13.385  0.4892 -0.1833  0.0126
  658UDC    C11 7238  11.593   9.971  13.237 -0.0402 -0.3852  0.2570
  659UDC     C1 7239   6.109  13.015   6.963  0.4138 -0.8956  0.8607
  659UDC     C2 7240   6.048  13.155   6.981 -0.7778  1.0086 -1.2336
  659UDC     C3 7241   5.908  13.169   6.925  1.1137  0.1310  0.1456
  659UDC     C4 7242   5.891  13.178   6.777  0.4578 -0.5504  1.6986
  659UDC     C5 7243   5.748  13.153   6.714  0.5572 -0.7963 -1.0929
  659UDC     C6 7244   5.721  13.119   6.565 -0.3992 -0.3181 -0.8316
  659UDC     C7 7245   5.577  13.092   6.514 -0.1094  1.6215  0.5486
  659UDC     C8 7246   5.484  13.007   6.596  0.9619  0.7126 -0.6843
  659UDC     C9 7247   5.344  13.066   6.634 -0.4773  1.2902 -0.3344
  659UDC    C10 7248   5.286  13.007   6.759  0.3342  0.8798 -0.3114
  659UDC    C11 7249   5.373  13.019   6.885 -0.2623  1.1805  0.2403
  660UDC     C1 7250  11.960  13.594  15.830 -0.5887 -0.2288  0.2891
  660UDC     C2 7251  12.080  13.677  15.788 -0.3043  0.6701 -0.0948
  660UDC     C3 7252  12.089  13.810  15.871 -0.3491 -0.6814  0.2723
  660UDC     C4 7253  12.210  13.899  15.829 -0.2767  0.4846 -0.0995
  660UDC     C5 7254  12.219  14.017  15.921 -0.3262 -0.0790 -0.5865
  660UDC     C6 7255  12.077  14.067  15.960 -0.4197 -0.6602 -1.5132
  660UDC     C7 7256  12.102  14.215  16.006  0.0480 -0.0264  0.3821
  660UDC     C8 7257  12.128  14.239  16.147 -0.0791 -0.1997  1.5836
  660UDC     C9 7258  12.098  14.386  16.171  0.1117 -1.5703 -0.1627
  660UDC    C10 7259  11.960  14.432  16.223 -0.5665  0.2586 -0.7164
  660UDC    C11 7260  11.962  14.420  16.377  0.1709 -0.6526  0.2853
  661UDC     C1 7261   0.363   0.463   3.999 -0.4865 -0.7535  0.3746
  661UDC     C2 7262   0.299   0.333   4.022  0.1211 -1.6011 -1.0111
  661UDC     C3 7263   0.206   0.263   3.922 -0.2219 -0.3524 -0.3708
  661UDC     C4 7264   0.091   0.202   4.011 -0.8389 -0.2385  0.5956
  661UDC     C5 7265  -0.035   0.164   3.932  1.6372  0.4287 -0.7583
  661UDC     C6 7266  -0.143   0.273   3.959  0.2532  0.2523 -0.1809
  661UDC     C7 7267  -0.256   0.269   3.851  0.4090 -0.9428 -0.4184
  661UDC     C8 7268  -0.392   0.328   3.898  0.0534  0.2615  1.0812
  661UDC     C9 7269  -0.399   0.476   3.863 -0.5283 -1.4965  0.4770
  661UDC    C10 7270  -0.500   0.539   3.960 -0.4371  0.0963 -0.2375
  661UDC    C11 7271  -0.639   0.566   3.907 -0.3933 -0.1965  0.3985
  662UDC     C1 7272   8.816  14.954   6.639 -0.3548  0.6818  0.2508
  662UDC     C2 7273   8.895  15.082   6.605 -0.4596  0.1995 -1.4487
  662UDC     C3 7274   8.981  15.067   6.475 -0.7320 -0.3226 -0.0733
  662UDC     C4 7275   8.903  15.096   6.345  0.0020 -1.6218 -0.0886
  662UDC     C5 7276   8.974  15.048   6.215 -0.7126 -0.5660 -0.0783
  662UDC     C6 7277   8.885  15.032   6.094 -0.4043 -0.5958  0.1132
  662UDC     C7 7278   8.879  14.880   6.057 -0.9053 -0.0772  0.3730
  662UDC     C8 7279   8.864  14.861   5.902 -0.0229  0.6917 -0.4312
  662UDC     C9 7280   8.974  14.922   5.817 -0.8545 -0.4648 -0.3857
  662UDC    C10 7281   8.963  14.832   5.685 -0.1634  0.2131 -0.4898
  662UDC    C11 7282   9.081  14.849   5.590 -0.4093  0.5064  0.9674
  663UDC     C1 7283  12.951  10.888  10.945  0.4753  0.9309 -0.3674
  663UDC     C2 7284  12.981  10.909  11.095 -1.1798 -0.5915  0.6297
  663UDC     C3 7285  13.117  10.867  11.157  0.5032  0.0696  0.6618
  663UDC     C4 7286  13.231  10.960  11.128  0.0544  0.0636 -0.3074
  663UDC     C5 7287  13.356  10.944  11.209 -0.8963 -1.0017  0.9962
  663UDC     C6 7288  13.333  10.943  11.360  0.7119  0.2888  0.0417
  663UDC     C7 7289  13.464  10.939  11.444  0.8438  0.3435 -0.4375
  663UDC     C8 7290  13.430  11.011  11.576 -0.4318  0.4509  0.1294
  663UDC     C9 7291  13.542  11.032  11.684  0.3349 -0.8856  0.0652
  663UDC    C10 7292  13.683  11.024  11.630  0.7693  0.2215  0.3841
  663UDC    C11 7293  13.732  11.159  11.565 -0.6737 -0.5299  0.1099
  664UDC     C1 7294   4.008  12.202  11.190 -0.2028 -0.7801  0.2019
  664UDC     C2 7295   3.936  12.176  11.055  0.2347  0.2743  0.7292
  664UDC     C3 7296   4.029  12.207  10.935 -0.0754 -0.9035  0.0562
  664UDC     C4 7297   4.171  12.143  10.928  0.3823  0.4596 -0.2891
  664UDC     C5 7298   4.242  12.192  10.804 -0.3010  0.0953 -0.1204
  664UDC     C6 7299   4.379  12.129  10.766 -0.6902 -0.4288 -0.7621
  664UDC     C7 7300   4.441  12.190  10.646 -0.3124  0.2448  0.0779
  664UDC     C8 7301   4.562  12.123  10.585  1.0601  0.1491 -0.2310
  664UDC     C9 7302   4.656  12.239  10.547  0.8172  0.4600  0.4497
  664UDC    C10 7303   4.790  12.175  10.540  0.4787  0.8220 -1.6628
  664UDC    C11 7304   4.833  12.136  10.400  0.5979 -0.0141  0.1566
  665UDC     C1 7305  19.987   8.894  11.651  0.3910  0.4188  0.1882
  665UDC     C2 7306  20.029   9.022  11.726 -0.8005  0.1762 -0.1913
  665UDC     C3 7307  20.111   8.990  11.858 -1.2403  0.0185  1.5313
  665UDC     C4 7308  20.243   9.064  11.863 -0.3530 -0.0503 -0.0048
  665UDC     C5 7309  20.294   9.097  12.001 -0.9698  1.8010 -0.7204
  665UDC     C6 7310  20.291   8.987  12.110 -1.1195  0.1618 -0.5045
  665UDC     C7 7311  20.413   8.891  12.094  0.4680 -0.3758  0.3883
  665UDC     C8 7312  20.553   8.947  12.090 -0.7445  0.7196  0.7653
  665UDC     C9 7313  20.629   8.829  12.030 -0.3870  0.3517 -0.0375
  665UDC    C10 7314  20.788   8.833  12.031  0.2566 -0.0940 -0.5888
  665UDC    C11 7315  20.836   8.706  11.956  0.6260 -0.2394 -0.2081
  666UDC     C1 7316   0.187   1.963   2.983  0.5248  0.6325  0.3411
  666UDC     C2 7317   0.169   1.816   3.026  0.1535  0.3948  1.0106
  666UDC     C3 7318   0.112   1.718   2.924  0.3202  1.4402  0.9162
  666UDC     C4 7319   0.097   1.584   2.994  0.2087  0.5075 -0.4944
  666UDC     C5 7320  -0.014   1.506   2.922 -1.1605 -0.0822  0.5301
  666UDC     C6 7321  -0.035   1.355   2.957  0.5174  0.6514  0.1224
  666UDC     C7 7322   0.011   1.271   2.837 -0.0046 -0.2778 -0.3700
  666UDC     C8 7323  -0.001   1.118   2.837  1.7460  0.0952  0.3123
  666UDC     C9 7324   0.105   1.050   2.920 -0.1330  0.4130 -0.1369
  666UDC    C10 7325   0.104   0.897   2.936  0.5885  0.3531  0.6891
  666UDC    C11 7326   0.003   0.864   3.047  0.6568 -0.5643 -1.3479
  667UDC     C1 7327   4.912  10.186   5.145  0.5942 -0.0120 -0.2998
  667UDC     C2 7328   4.762  10.173   5.104 -0.5855  0.4664  0.3332
  667UDC     C3 7329   4.749  10.193   4.955  0.5247 -0.1987 -0.2909
  667UDC     C4 7330   4.610  10.178   4.909 -0.2396  1.1032  0.7232
  667UDC     C5 7331   4.490  10.205   5.002  0.0875 -0.8277 -0.5253
  667UDC     C6 7332   4.451  10.361   5.024  0.2551  0.3093  0.4792
  667UDC     C7 7333   4.538  10.451   5.117 -0.4093 -1.1452 -0.9695
  667UDC     C8 7334   4.477  10.552   5.221 -0.5305  0.4323 -0.1150
  667UDC     C9 7335   4.424  10.473   5.334  0.2853  0.3584  0.0624
  667UDC    C10 7336   4.387  10.558   5.457 -0.1014  0.2403  0.7404
  667UDC    C11 7337   4.328  10.690   5.413 -0.7436 -0.5524  0.5968
  668UDC     C1 7338   8.226   4.203  10.491  0.4512 -0.9315 -0.2448
  668UDC     C2 7339   8.363   4.237  10.539 -1.1494  0.7885  0.1956
  668UDC     C3 7340   8.410   4.164  10.666 -0.0965 -0.2025  0.1169
  668UDC     C4 7341   8.562   4.176  10.707  0.1087  0.1564  0.8575
  668UDC     C5 7342   8.596   4.101  10.836 -0.1782  0.6689 -0.0915
  668UDC     C6 7343   8.738   4.051  10.827 -0.6163 -0.0440  0.7892
  668UDC     C7 7344   8.800   4.027  10.969  0.0007  0.3552  0.4150
  668UDC     C8 7345   8.928   3.945  10.973  0.1623 -0.7797  0.2356
  668UDC     C9 7346   8.921   3.818  11.056  0.2809  0.0257 -1.4024
  668UDC    C10 7347   8.830   3.714  10.993  0.4116  0.3867  0.0593
  668UDC    C11 7348   8.818   3.570  11.043 -0.1829  0.3690 -0.7835
  669UDC     C1 7349  19.788   2.507  17.494 -1.2651  0.2838 -0.1966
  669UDC     C2 7350  19.812   2.659  17.519  0.1114  0.2460 -0.3889
  669UDC     C3 7351  19.694   2.749  17.507  0.3699 -0.2640  0.3437
  669UDC     C4 7352  19.711   2.880  17.424  0.7415 -0.1424 -0.3484
  669UDC     C5 7353  19.675   3.020  17.485  0.3554 -0.0946  1.4148
  669UDC     C6 7354  19.522   3.057  17.505 -1.5712  0.4713  0.1967
  669UDC     C7 7355  19.450   3.139  17.397  0.0833 -0.2004 -0.2197
  669UDC     C8 7356  19.417   3.060  17.268 -0.7270  0.5430 -0.3630
  669UDC     C9 7357  19.423   3.131  17.133  0.2590 -2.0735 -0.7420
  669UDC    C10 7358  19.310   3.244  17.147 -0.1617  0.5173  0.6860
  669UDC    C11 7359  19.288   3.330  17.009 -0.2199 -0.9054 -0.3353
  670UDC     C1 7360  16.116   6.484  18.101 -0.5614  0.4433 -0.4094
  670UDC     C2 7361  16.121   6.585  17.984  0.0182  0.1993 -0.9952
  670UDC     C3 7362  16.087   6.511  17.858  0.4244 -0.7055  0.2216
  670UDC     C4 7363  15.976   6.575  17.778  0.8984 -0.6776  0.6272
  670UDC     C5 7364  15.921   6.468  17.682 -0.1289  0.8073 -0.2628
  670UDC     C6 7365  15.852   6.358  17.760  1.1901 -0.0802  0.6592
  670UDC     C7 7366  15.758   6.281  17.660 -0.1523 -1.1276  1.0134
  670UDC     C8 7367  15.641   6.359  17.604  0.1435  0.0942  0.6170
  670UDC     C9 7368  15.563   6.288  17.484 -0.9427  0.4071  0.6498
  670UDC    C10 7369  15.600   6.356  17.356 -0.5609  0.1213  0.5564
  670UDC    C11 7370  15.536   6.285  17.229 -0.7609 -1.3432 -0.0516
  671UDC     C1 7371   3.641  11.786   0.721  0.0456  0.1703  0.4049
  671UDC     C2 7372   3.634  11.655   0.639  0.5878 -0.0537  0.7256
  671UDC     C3 7373   3.566  11.674   0.499 -0.3567  0.0573 -0.1709
  671UDC     C4 7374   3.612  11.562   0.401 -0.8285 -0.7186 -0.3181
  671UDC     C5 7375   3.484  11.503   0.336 -0.3189  1.8644  0.1113
  671UDC     C6 7376   3.495  11.374   0.249 -0.1257 -0.5912 -0.3448
  671UDC     C7 7377   3.521  11.411   0.103 -0.0855  1.2225  0.5398
  671UDC     C8 7378   3.533  11.287   0.011 -0.1503  0.0682  0.4999
  671UDC     C9 7379   3.654  11.197   0.037 -0.4693  1.5008  0.4842
  671UDC    C10 7380   3.789  11.274   0.013  1.4006  0.4486  0.2273
  671UDC    C11 7381   3.845  11.274  -0.132 -0.2934 -0.3684 -0.6739
  672UDC     C1 7382  19.482   5.247   6.189 -0.4979  0.0215  0.0604
  672UDC     C2 7383  19.550   5.312   6.303 -0.1606 -0.2258  1.0696
  672UDC     C3 7384  19.704   5.289   6.317 -0.0628 -1.2689 -0.0231
  672UDC     C4 7385  19.732   5.150   6.365  0.9016  1.0628  0.6246
  672UDC     C5 7386  19.667   5.052   6.466  0.9392 -0.1239 -0.3879
  672UDC     C6 7387  19.589   4.935   6.391  0.9288 -0.4422 -0.3069
  672UDC     C7 7388  19.483   4.859   6.475 -0.6349 -0.0244 -1.2040
  672UDC     C8 7389  19.378   4.945   6.550  0.5322 -0.3298  0.5793
  672UDC     C9 7390  19.268   4.863   6.625 -1.7673  0.7493 -0.4357
  672UDC    C10 7391  19.207   4.950   6.740  0.1405 -0.7744  0.3690
  672UDC    C11 7392  19.293   4.965   6.871  0.5436  0.7592  0.1605
  673UDC     C1 7393  17.812   8.555  13.689 -1.5524 -0.4423  0.9648
  673UDC     C2 7394  17.758   8.569  13.830  0.5170  0.7418 -0.2087
  673UDC     C3 7395  17.601   8.545  13.847 -0.1090  0.1230  0.7643
  673UDC     C4 7396  17.594   8.586  13.994 -1.5326  1.1917 -0.7124
  673UDC     C5 7397  17.472   8.601  14.077 -1.2507 -0.5092  0.1090
  673UDC     C6 7398  17.489   8.644  14.222 -1.3574  0.6824 -1.0792
  673UDC     C7 7399  17.408   8.767  14.245 -0.5802 -0.2835 -0.2188
  673UDC     C8 7400  17.489   8.896  14.216  0.9314 -0.7143  1.4034
  673UDC     C9 7401  17.599   8.911  14.309  0.3951 -0.2868  0.5579
  673UDC    C10 7402  17.725   8.967  14.233 -0.1089 -1.5412  0.4542
  673UDC    C11 7403  17.674   9.029  14.103 -0.0271 -0.4654  0.5588
  674UDC     C1 7404   8.919  16.250  19.180  0.2147 -0.6806  0.8335
  674UDC     C2 7405   8.802  16.177  19.237  0.2601  0.6282 -0.6715
  674UDC     C3 7406   8.835  16.043  19.301 -0.3337  1.0289  0.7634
  674UDC     C4 7407   8.743  16.010  19.413 -0.3930 -1.6239  0.2580
  674UDC     C5 7408   8.600  16.003  19.367  0.8130  0.2748  0.4324
  674UDC     C6 7409   8.508  15.933  19.468 -0.7213  0.2232 -0.4785
  674UDC     C7 7410   8.377  15.889  19.395 -0.0633  0.2005 -0.4250
  674UDC     C8 7411   8.277  15.860  19.509 -1.2591 -0.2085 -0.0993
  674UDC     C9 7412   8.313  15.746  19.609  0.3069  0.4016 -0.9115
  674UDC    C10 7413   8.223  15.744  19.736 -1.0363  0.2770 -0.6663
  674UDC    C11 7414   8.088  15.675  19.713 -0.3004  1.4932 -1.5256
  675UDC     C1 7415  14.637  10.933   7.333  0.0695 -1.0548 -0.3504
  675UDC     C2 7416  14.513  11.016   7.362 -0.9774  0.3761  0.7168
  675UDC     C3 7417  14.542  11.160   7.411 -0.6109  0.2585  0.6660
  675UDC     C4 7418  14.407  11.201   7.458  0.0909 -0.0749 -0.4460
  675UDC     C5 7419  14.403  11.344   7.519  0.8091 -0.5583  0.1180
  675UDC     C6 7420  14.269  11.410   7.511  0.3983  0.4219  0.1215
  675UDC     C7 7421  14.247  11.526   7.414 -0.0694 -0.2338 -0.0971
  675UDC     C8 7422  14.244  11.644   7.508 -0.9982  0.1124 -0.1040
  675UDC     C9 7423  14.161  11.758   7.458  0.4415 -0.2780 -0.6166
  675UDC    C10 7424  14.227  11.843   7.352 -0.2759 -0.2229 -0.4790
  675UDC    C11 7425  14.366  11.876   7.409  0.0062  0.0796 -0.0200
  676UDC     C1 7426  18.084  16.259  14.208 -0.5422 -0.3828  0.2373
  676UDC     C2 7427  18.024  16.401  14.189  0.1163 -0.2997  1.0433
  676UDC     C3 7428  17.942  16.419  14.058 -0.6955  1.0572 -0.5596
  676UDC     C4 7429  17.881  16.559  14.049 -0.4486  0.6699 -0.7351
  676UDC     C5 7430  17.760  16.584  14.142 -0.2760 -0.1965  0.6175
  676UDC     C6 7431  17.739  16.727  14.200 -0.1194 -0.7200 -0.8145
  676UDC     C7 7432  17.835  16.779  14.308  0.4668  0.2249  0.4806
  676UDC     C8 7433  17.790  16.708  14.439  0.6022  0.1033 -1.0770
  676UDC     C9 7434  17.781  16.785  14.574  1.4993  0.5442 -0.1071
  676UDC    C10 7435  17.801  16.675  14.683  0.7749 -1.2496 -0.1345
  676UDC    C11 7436  17.765  16.726  14.824  0.0288  0.1511 -0.3460
  677UDC     C1 7437   9.888  17.579  18.957 -0.1708  0.1471  0.8377
  677UDC     C2 7438   9.882  17.711  19.034 -0.5845 -0.1685  0.4082
  677UDC     C3 7439   9.899  17.707  19.191 -0.1621 -0.1442  0.8988
  677UDC     C4 7440  10.026  17.661  19.249 -0.0142 -0.3467 -0.3195
  677UDC     C5 7441  10.009  17.674  19.395 -1.0410  0.3801 -0.4896
  677UDC     C6 7442   9.868  17.633  19.450 -0.1027  0.3843 -0.7721
  677UDC     C7 7443   9.870  17.620  19.605  0.0882  0.1875 -1.4216
  677UDC     C8 7444   9.729  17.601  19.662 -0.5766  0.8750  0.9376
  677UDC     C9 7445   9.645  17.501  19.580  0.3734  0.5481 -0.6593
  677UDC    C10 7446   9.659  17.356  19.641  0.2400  0.3134 -0.9423
  677UDC    C11 7447   9.540  17.300  19.556  0.0998 -0.3433  0.1033
  678UDC     C1 7448  10.150  10.397  10.674  0.3827 -0.3433  0.3084
  678UDC     C2 7449  10.016  10.319  10.667 -0.3532  1.0982 -1.3662
  678UDC     C3 7450   9.967  10.312  10.527  0.4448 -1.3036 -0.3932
  678UDC     C4 7451   9.818  10.282  10.520 -0.9380 -0.4257 -0.0851
  678UDC     C5 7452   9.799  10.156  10.438 -0.0736  1.2635  1.0999
  678UDC     C6 7453   9.878  10.175  10.312 -0.4832  0.1581  0.3650
  678UDC     C7 7454   9.955  10.046  10.259 -0.1579 -0.4965 -0.8239
  678UDC     C8 7455   9.997  10.050  10.119 -0.4649  0.2243  0.2038
  678UDC     C9 7456  10.131  10.127  10.098  0.2697  0.4396  0.5242
  678UDC    C10 7457  10.173  10.149   9.947  0.6453 -0.3290 -0.2670
  678UDC    C11 7458  10.103  10.259   9.858  0.2946  0.0537  0.8144
  679UDC     C1 7459   5.210  14.778  10.434  0.1563 -1.4171  0.4891
  679UDC     C2 7460   5.249  14.867  10.313 -0.9448  0.9215  0.8041
  679UDC     C3 7461   5.331  14.992  10.336  0.4499  0.8889 -0.1969
  679UDC     C4 7462   5.345  15.093  10.220  0.7726  0.1028  0.0048
  679UDC     C5 7463   5.446  15.205  10.238  0.4416 -0.1106 -0.2733
  679UDC     C6 7464   5.411  15.329  10.324 -1.1258 -0.3173  0.4665
  679UDC     C7 7465   5.506  15.446  10.339 -0.2364  0.1999 -0.5588
  679UDC     C8 7466   5.446  15.574  10.406  0.1038  0.8614  0.3598
  679UDC     C9 7467   5.374  15.534  10.538 -0.2016 -0.9090 -0.0950
  679UDC    C10 7468   5.489  15.520  10.635 -0.0135  0.6204  0.0278
  679UDC    C11 7469   5.449  15.468  10.771  0.6822  0.0228 -1.2467
  680UDC     C1 7470   2.672   1.665   2.670 -0.2021 -0.4054 -0.2804
  680UDC     C2 7471   2.637   1.563   2.560 -0.0427  0.4024  0.4227
  680UDC     C3 7472   2.732   1.500   2.455  0.3520 -0.3119 -0.5806
  680UDC     C4 7473   2.857   1.447   2.532  0.1291  0.0957 -0.0884
  680UDC     C5 7474   2.820   1.311   2.595 -0.0371  0.1046  0.6294
  680UDC     C6 7475   2.942   1.244   2.661  0.2880 -0.4159  0.2178
  680UDC     C7 7476   3.067   1.232   2.568  1.3540 -0.5114 -0.7340
  680UDC     C8 7477   3.030   1.143   2.446  0.0064  0.1220  0.3005
  680UDC     C9 7478   2.994   0.995   2.471  0.6592  0.3335 -1.0441
  680UDC    C10 7479   3.028   0.896   2.357 -0.5392 -0.2510 -0.3423
  680UDC    C11 7480   3.102   0.766   2.400  0.2602 -0.2408 -0.3532
  681UDC     C1 7481  14.230   5.980  17.081 -0.4092 -1.0037  0.3931
  681UDC     C2 7482  14.348   6.047  17.166 -0.2133 -0.3442  0.2367
  681UDC     C3 7483  14.476   5.973  17.180  0.3010 -0.9024  1.1116
  681UDC     C4 7484  14.587   6.076  17.222 -0.9572 -0.9529  0.7892
  681UDC     C5 7485  14.738   6.041  17.209  1.5108 -1.0379  0.5469
  681UDC     C6 7486  14.793   5.936  17.310 -0.1942  0.4933 -1.1214
  681UDC     C7 7487  14.939   5.967  17.349 -0.0021 -0.2382 -0.9101
  681UDC     C8 7488  14.971   5.880  17.474  0.5141 -0.1306  0.4938
  681UDC     C9 7489  15.113   5.856  17.529  1.2377 -0.5905 -0.0140
  681UDC    C10 7490  15.105   5.746  17.640  1.0876  0.5371 -1.0534
  681UDC    C11 7491  15.090   5.596  17.607 -0.2554  0.6198 -0.7275
  682UDC     C1 7492   2.930  18.070   1.328 -0.0611  0.1136  0.7050
  682UDC     C2 7493   2.962  17.975   1.216  0.1719  0.5029  0.5793
  682UDC     C3 7494   3.094  17.904   1.233 -0.3270  0.1953  0.4781
  682UDC     C4 7495   3.129  17.806   1.123 -0.3669 -0.6917  0.4860
  682UDC     C5 7496   3.055  17.843   0.998 -0.1951  0.9563 -0.3514
  682UDC     C6 7497   3.066  17.741   0.880 -0.3158 -0.4248  0.6463
  682UDC     C7 7498   3.018  17.763   0.732  0.3133  0.1398 -0.8481
  682UDC     C8 7499   2.860  17.776   0.719 -1.5065 -0.0770  0.0496
  682UDC     C9 7500   2.814  17.769   0.575  0.1817 -0.1683  0.4935
  682UDC    C10 7501   2.663  17.788   0.543 -0.0029 -0.4057 -0.1082
  682UDC    C11 7502   2.644  17.750   0.394 -0.2838  0.2448 -0.8072
  683UDC     C1 7503   9.828   6.448   1.040  0.2548 -0.3628  0.0230
  683UDC     C2 7504   9.704   6.538   1.024 -0.4574 -0.6441 -0.2473
  683UDC     C3 7505   9.715   6.678   1.094 -0.7320 -0.3495  0.3911
  683UDC     C4 7506   9.611   6.786   1.039 -0.2122  0.3937  0.3129
  683UDC     C5 7507   9.656   6.934   1.048 -0.8350 -0.6748  0.3805
  683UDC     C6 7508   9.805   6.960   1.070 -0.1184  0.9878  0.9588
  683UDC     C7 7509   9.854   7.108   1.094  0.4923  0.9680 -0.2099
  683UDC     C8 7510   9.836   7.170   1.235  0.7699  0.0396  0.1614
  683UDC     C9 7511   9.913   7.293   1.259 -0.3964  0.8796 -0.2652
  683UDC    C10 7512  10.068   7.289   1.210  0.5804 -0.9042 -0.2037
  683UDC    C11 7513  10.136   7.430   1.215  0.4550  1.5867 -0.3069
  684UDC     C1 7514   4.819  17.572  18.290  0.6517 -0.2600  0.3552
  684UDC     C2 7515   4.800  17.507  18.428 -0.3922  0.6120  1.0880
  684UDC     C3 7516   4.747  17.607  18.523 -0.1515  0.2064  0.3550
  684UDC     C4 7517   4.591  17.618  18.506 -0.6720 -0.6111  0.3194
  684UDC     C5 7518   4.542  17.703  18.625  0.3963  0.2974  0.8195
  684UDC     C6 7519   4.554  17.648  18.774 -0.1002 -0.2138  0.9225
  684UDC     C7 7520   4.560  17.762  18.883 -1.8105  0.7737 -0.2412
  684UDC     C8 7521   4.686  17.843  18.880 -1.3016 -0.3590  0.2729
  684UDC     C9 7522   4.648  17.970  18.949 -0.2654 -0.2472 -0.7901
  684UDC    C10 7523   4.753  18.084  18.985 -0.5753  0.2909 -1.5010
  684UDC    C11 7524   4.852  18.112  18.877 -0.0215 -0.3534  0.1990
  685UDC     C1 7525  13.153  13.206  16.036 -0.7753 -0.4168 -0.5809
  685UDC     C2 7526  13.093  13.351  16.017  0.0317  0.1349 -0.4152
  685UDC     C3 7527  13.025  13.404  15.886 -0.5591  0.6581  0.8995
  685UDC     C4 7528  12.935  13.520  15.897  0.6020 -0.9700  0.0465
  685UDC     C5 7529  12.997  13.652  15.933 -0.4258 -0.4139 -0.2175
  685UDC     C6 7530  12.893  13.760  15.919 -0.1823 -0.6628  1.1814
  685UDC     C7 7531  12.793  13.734  16.041  1.0490 -1.0394 -0.5348
  685UDC     C8 7532  12.677  13.836  16.063  0.2873 -1.1263  0.3382
  685UDC     C9 7533  12.706  13.968  16.143 -0.5195 -0.2342  0.0179
  685UDC    C10 7534  12.594  14.070  16.183  0.0302 -0.7638  0.6194
  685UDC    C11 7535  12.642  14.177  16.288 -0.7269 -0.2027 -0.5985
  686UDC     C1 7536  17.584  18.859  13.382 -0.4618  0.4349  0.2390
  686UDC     C2 7537  17.682  18.831  13.264  0.2112  1.0987 -1.4645
  686UDC     C3 7538  17.801  18.735  13.304  0.5607 -0.1877 -0.6090
  686UDC     C4 7539  17.869  18.814  13.412 -0.8066 -0.2149 -0.1655
  686UDC     C5 7540  17.956  18.923  13.342 -0.4876  0.3772  0.4295
  686UDC     C6 7541  18.041  19.010  13.443 -0.1260  0.7887  0.4288
  686UDC     C7 7542  17.950  19.050  13.562 -0.3334  0.8341  1.3106
  686UDC     C8 7543  17.962  19.198  13.586  0.5350  0.5203  0.0381
  686UDC     C9 7544  18.088  19.241  13.651  0.2506 -0.4010 -0.8909
  686UDC    C10 7545  18.084  19.394  13.681 -0.3838  0.2221 -0.0540
  686UDC    C11 7546  18.036  19.439  13.819  0.0462  0.7164  0.0868
  687UDC     C1 7547  14.384  13.717  14.835 -0.6688  0.0802  0.1491
  687UDC     C2 7548  14.308  13.673  14.708  0.3350 -1.2929  0.2016
  687UDC     C3 7549  14.172  13.607  14.735  0.1505 -0.8260 -0.2677
  687UDC     C4 7550  14.104  13.578  14.603  0.3061  0.2498  0.0523
  687UDC     C5 7551  14.033  13.441  14.596 -0.0538 -1.0924 -0.2207
  687UDC     C6 7552  13.885  13.456  14.627 -0.5642  0.2595 -0.1677
  687UDC     C7 7553  13.795  13.345  14.570  0.6280  1.0085  0.3962
  687UDC     C8 7554  13.644  13.327  14.609  0.2149  0.1207 -1.1013
  687UDC     C9 7555  13.562  13.203  14.573  0.5826  0.0270 -1.0194
  687UDC    C10 7556  13.517  13.195  14.429 -0.6119 -0.1520  0.6674
  687UDC    C11 7557  13.470  13.052  14.377  0.5344 -0.1920 -0.5342
  688UDC     C1 7558   1.740  14.023   3.978  0.1404 -0.6409 -0.1211
  688UDC     C2 7559   1.742  14.177   3.969  0.9518  0.9841 -1.3294
  688UDC     C3 7560   1.695  14.246   4.099 -0.1157 -0.0435  0.3498
  688UDC     C4 7561   1.546  14.253   4.137 -0.0799 -0.4273 -0.0359
  688UDC     C5 7562   1.531  14.312   4.272  0.1427  0.0012  0.4099
  688UDC     C6 7563   1.410  14.399   4.313 -0.2641  0.2369  0.2284
  688UDC     C7 7564   1.272  14.326   4.320 -1.0274  0.3253 -0.2802
  688UDC     C8 7565   1.157  14.430   4.303 -1.0137  0.1416 -0.3796
  688UDC     C9 7566   1.197  14.527   4.191  0.2925 -0.4786 -0.8129
  688UDC    C10 7567   1.080  14.606   4.132 -1.4028  0.8225  0.6233
  688UDC    C11 7568   0.963  14.608   4.230 -0.8013  0.8297 -0.1352
  689UDC     C1 7569   6.233  11.756   8.209 -0.6453  0.2194  0.3933
  689UDC     C2 7570   6.337  11.675   8.126  0.1361  1.4010  0.9296
  689UDC     C3 7571   6.423  11.584   8.214 -0.4762  0.6693 -0.0273
  689UDC     C4 7572   6.532  11.508   8.147  0.3258 -0.1554  0.6981
  689UDC     C5 7573   6.644  11.454   8.231 -0.3104  0.6381  0.4311
  689UDC     C6 7574   6.605  11.429   8.375  0.2370 -1.0340 -0.1849
  689UDC     C7 7575   6.714  11.478   8.473  0.2454  0.2921 -0.7471
  689UDC     C8 7576   6.673  11.522   8.622 -0.9625 -0.3288 -0.4642
  689UDC     C9 7577   6.798  11.544   8.697 -1.1711 -0.8501  0.4708
  689UDC    C10 7578   6.799  11.693   8.763 -0.9192  0.3125 -0.0830
  689UDC    C11 7579   6.898  11.693   8.884  0.4731  0.7951  0.5751
  690UDC     C1 7580  18.331  10.545   3.776 -0.0866  0.3416 -0.4444
  690UDC     C2 7581  18.405  10.420   3.724 -1.3327 -0.7985  0.5344
  690UDC     C3 7582  18.314  10.306   3.683 -0.5066  0.2875 -0.1696
  690UDC     C4 7583  18.369  10.163   3.684  0.2360 -0.8692  0.9837
  690UDC     C5 7584  18.248  10.076   3.633 -0.0773 -0.2949  0.3490
  690UDC     C6 7585  18.256  10.024   3.487  0.8903 -0.2894 -0.1077
  690UDC     C7 7586  18.245  10.127   3.369 -0.6717  0.3099 -0.2480
  690UDC     C8 7587  18.188  10.099   3.224 -1.5243 -0.1204 -0.6116
  690UDC     C9 7588  18.207  10.203   3.107  1.9882  0.2348 -0.1212
  690UDC    C10 7589  18.111  10.320   3.124  0.4140  0.9165 -0.9075
  690UDC    C11 7590  18.136  10.411   3.003  0.8323  1.4694  0.9797
  691UDC     C1 7591   9.834  11.703   9.701  0.3739 -0.1264  0.2009
  691UDC     C2 7592   9.950  11.785   9.657  0.2889 -0.4012  0.2096
  691UDC     C3 7593  10.072  11.694   9.629  0.0918  0.0156 -0.8600
  691UDC     C4 7594  10.046  11.641   9.488  0.6198  0.0990  1.5446
  691UDC     C5 7595  10.164  11.576   9.418  0.6377 -0.3320  0.4084
  691UDC     C6 7596  10.142  11.513   9.275  0.3791 -1.4153 -0.2892
  691UDC     C7 7597  10.267  11.520   9.175  0.0644  0.8925 -0.1127
  691UDC     C8 7598  10.227  11.504   9.026  0.4333  0.4682 -0.7319
  691UDC     C9 7599  10.165  11.629   8.968  0.3048 -0.3684 -0.6929
  691UDC    C10 7600  10.084  11.594   8.841  0.1712 -0.2581 -0.0036
  691UDC    C11 7601   9.991  11.708   8.797 -0.2990 -0.3748  0.0011
  692UDC     C1 7602   7.609  10.454   4.270  0.8702  0.3066 -0.5904
  692UDC     C2 7603   7.543  10.324   4.304  0.3597 -0.9819 -0.8075
  692UDC     C3 7604   7.414  10.334   4.381 -0.6332 -1.4892  1.3526
  692UDC     C4 7605   7.365  10.205   4.442  0.2013 -0.2066 -0.3096
  692UDC     C5 7606   7.494  10.142   4.512  1.0526  1.1145  0.1959
  692UDC     C6 7607   7.485  10.008   4.597  1.2271 -0.3708  1.0728
  692UDC     C7 7608   7.594  10.027   4.710  1.2067 -0.6218  0.4757
  692UDC     C8 7609   7.515  10.124   4.808 -0.1006 -0.5800  0.5811
  692UDC     C9 7610   7.600  10.204   4.912  0.1128  0.6918 -0.0079
  692UDC    C10 7611   7.705  10.128   5.001  0.0200 -1.0097  0.4070
  692UDC    C11 7612   7.777  10.216   5.109  0.1688  0.6105  0.1289
  693UDC     C1 7613   9.616   8.152  13.401  0.8342 -0.5999 -0.6738
  693UDC     C2 7614   9.537   8.265  13.469  0.0119 -0.8605 -0.0921
  693UDC     C3 7615   9.389   8.233  13.454 -0.2404 -0.5224  0.0276
  693UDC     C4 7616   9.302   8.322  13.544 -0.4525 -0.3747 -0.1476
  693UDC     C5 7617   9.264   8.243  13.671 -1.1303 -0.0768 -0.3837
  693UDC     C6 7618   9.217   8.333  13.788  0.2295 -0.1494 -0.1796
  693UDC     C7 7619   9.080   8.380  13.747  0.5222 -0.6779  0.0421
  693UDC     C8 7620   9.046   8.508  13.832 -0.1707  0.5340 -0.9014
  693UDC     C9 7621   9.101   8.643  13.787  0.0977 -0.6011  0.4643
  693UDC    C10 7622   9.016   8.752  13.851 -0.4434 -0.3486 -1.1392
  693UDC    C11 7623   8.876   8.768  13.792 -0.3488  0.0454 -0.3761
  694UDC     C1 7624  14.821  17.080  17.140 -1.8307 -0.2443 -0.4115
  694UDC     C2 7625  14.670  17.075  17.176 -1.2567  0.1348 -0.1044
  694UDC     C3 7626  14.593  16.935  17.176 -0.8727 -1.5117 -0.5525
  694UDC     C4 7627  14.445  16.941  17.205  0.2841  1.0331 -0.9871
  694UDC     C5 7628  14.373  16.808  17.246  0.0778 -1.3466  1.2923
  694UDC     C6 7629  14.267  16.834  17.354  0.5642 -0.7879 -0.0157
  694UDC     C7 7630  14.231  16.695  17.402 -0.9096 -1.2432  0.1779
  694UDC     C8 7631  14.202  16.701  17.550 -0.2348  0.9417  0.0525
  694UDC     C9 7632  14.080  16.785  17.587  0.4469 -1.1402  0.1353
  694UDC    C10 7633  13.945  16.779  17.514 -0.1397  0.5576  0.1327
  694UDC    C11 7634  13.828  16.751  17.616 -0.3875  1.1058  0.2444
  695UDC     C1 7635   8.815  17.818   2.548  0.0687  0.3985  0.1581
  695UDC     C2 7636   8.662  17.833   2.544  0.5149 -0.0690 -0.4094
  695UDC     C3 7637   8.590  17.702   2.578  0.5642 -0.1561  0.3801
  695UDC     C4 7638   8.454  17.755   2.647 -0.2699 -0.5957  0.3271
  695UDC     C5 7639   8.474  17.810   2.793 -0.9841  0.7812  0.9522
  695UDC     C6 7640   8.356  17.864   2.867  1.1842  1.2080 -0.0891
  695UDC     C7 7641   8.250  17.745   2.889 -0.8809  0.4892  0.5002
  695UDC     C8 7642   8.266  17.667   3.019 -0.6101 -1.0627  0.9753
  695UDC     C9 7643   8.351  17.541   3.009 -0.6521  1.3881  0.7044
  695UDC    C10 7644   8.419  17.492   3.132 -0.5070 -0.6266 -0.1299
  695UDC    C11 7645   8.540  17.395   3.092  0.0236 -0.1930  0.9443
  696UDC     C1 7646  12.584   6.899  17.193  0.6721 -0.0143 -1.0390
  696UDC     C2 7647  12.737   6.889  17.200  1.5380 -0.2784 -0.2608
  696UDC     C3 7648  12.783   6.817  17.324  0.2746 -0.3681 -0.6830
  696UDC     C4 7649  12.854   6.918  17.418  0.3895 -1.0272 -0.0328
  696UDC     C5 7650  12.994   6.964  17.393 -0.1836  0.5046  0.4851
  696UDC     C6 7651  12.997   7.080  17.481 -0.0039 -0.0348 -0.4943
  696UDC     C7 7652  13.127   7.152  17.511  0.2540 -1.6373 -0.0929
  696UDC     C8 7653  13.161   7.220  17.381 -1.3695 -0.4241 -0.5656
  696UDC     C9 7654  13.274   7.328  17.412  0.3745  0.6471  1.3555
  696UDC    C10 7655  13.386   7.332  17.316 -0.4522  0.3013 -0.3171
  696UDC    C11 7656  13.498   7.222  17.339 -0.7447  0.0484 -0.8069
  697UDC     C1 7657  13.345  19.811   9.415 -0.9256  0.2303  0.3631
  697UDC     C2 7658  13.314  19.956   9.372 -1.1476  0.2611  0.4019
  697UDC     C3 7659  13.380  20.051   9.472  0.3791 -0.7350 -0.0941
  697UDC     C4 7660  13.376  20.004   9.614  0.6979  0.0364  0.3167
  697UDC     C5 7661  13.448  20.102   9.701 -0.0727 -0.0118 -0.1825
  697UDC     C6 7662  13.350  20.145   9.819 -0.3066  0.8324  0.0708
  697UDC     C7 7663  13.384  20.048   9.931  0.9446  0.4477 -0.6855
  697UDC     C8 7664  13.348  20.082  10.081 -0.4313 -0.5305  0.5715
  697UDC     C9 7665  13.447  20.165  10.172 -0.4487 -0.1415 -1.0042
  697UDC    C10 7666  13.414  20.132  10.320  1.0966 -0.9121  0.1949
  697UDC    C11 7667  13.497  20.204  10.432 -0.3732 -0.0784  0.0860
  698UDC     C1 7668  18.612   5.212   0.394 -0.4453 -1.2302 -1.1801
  698UDC     C2 7669  18.613   5.063   0.368 -0.5244 -0.0625  0.4618
  698UDC     C3 7670  18.669   5.015   0.234 -0.1442  1.0626  0.7703
  698UDC     C4 7671  18.565   5.056   0.131 -0.0542 -0.6045  0.3519
  698UDC     C5 7672  18.599   5.181   0.047  0.9083 -0.9675 -0.3832
  698UDC     C6 7673  18.492   5.222  -0.059 -0.1061  1.1970 -0.8365
  698UDC     C7 7674  18.498   5.362  -0.109  0.6013  0.2189  1.0917
  698UDC     C8 7675  18.375   5.380  -0.202 -0.4494 -0.0614 -1.5179
  698UDC     C9 7676  18.361   5.530  -0.242  0.1524  0.8444 -1.4016
  698UDC    C10 7677  18.430   5.558  -0.374 -0.7399  0.0441 -0.1030
  698UDC    C11 7678  18.390   5.694  -0.433  0.2363  0.6746  1.0408
  699UDC     C1 7679   4.607  13.834  11.489 -0.1641  0.0780 -0.4972
  699UDC     C2 7680   4.637  13.831  11.640 -0.5087 -0.4597  0.8606
  699UDC     C3 7681   4.784  13.874  11.669 -0.7206  0.8753  0.7229
  699UDC     C4 7682   4.900  13.791  11.604 -0.1223 -0.4964  0.4494
  699UDC     C5 7683   4.917  13.640  11.627  1.0164 -0.8318  0.5930
  699UDC     C6 7684   4.943  13.590  11.772 -0.1001  0.3881 -0.4801
  699UDC     C7 7685   4.968  13.443  11.762  0.0261 -0.5883  0.1686
  699UDC     C8 7686   5.113  13.449  11.703 -0.4157 -0.2681  0.3323
  699UDC     C9 7687   5.212  13.507  11.802  0.2009 -0.9994 -0.2226
  699UDC    C10 7688   5.365  13.491  11.776  0.6649  0.5201  0.9737
  699UDC    C11 7689   5.447  13.569  11.873  0.6444  0.5744  1.5391
  700UDC     C1 7690   6.103   9.920   8.119  0.2475  0.0870 -0.2869
  700UDC     C2 7691   6.213   9.905   8.007  0.6140  0.1407  0.1553
  700UDC     C3 7692   6.328  10.006   8.011  0.0149  0.5466 -0.0553
  700UDC     C4 7693   6.418   9.993   7.890  0.8299 -1.2962 -0.2424
  700UDC     C5 7694   6.393  10.083   7.769 -0.0755  0.3426  0.4223
  700UDC     C6 7695   6.419  10.232   7.799 -1.0417 -0.2154  0.1436
  700UDC     C7 7696   6.446  10.333   7.688 -0.1391  0.3994 -0.6777
  700UDC     C8 7697   6.561  10.283   7.594  0.9340 -0.6453 -0.8583
  700UDC     C9 7698   6.614  10.388   7.499 -0.3341 -0.1606 -0.4380
  700UDC    C10 7699   6.518  10.463   7.408 -0.0232  0.4873  0.0160
  700UDC    C11 7700   6.446  10.588   7.463  1.0290  1.0318  0.6227
  701UDC     C1 7701   0.219   7.970  13.628  0.3476 -1.1921  1.0834
  701UDC     C2 7702   0.341   7.986  13.535  0.1529 -1.1110 -0.7648
  701UDC     C3 7703   0.406   7.848  13.501 -0.8393 -0.7695  0.3964
  701UDC     C4 7704   0.515   7.847  13.396  0.0454 -0.1410 -0.8982
  701UDC     C5 7705   0.571   7.707  13.361 -0.1142  0.7317 -1.0823
  701UDC     C6 7706   0.703   7.719  13.283  0.1024 -1.3678  0.5196
  701UDC     C7 7707   0.769   7.577  13.264 -0.1805  0.2030 -0.0805
  701UDC     C8 7708   0.851   7.533  13.142 -0.0667  1.1694 -0.4847
  701UDC     C9 7709   0.885   7.378  13.159  0.3709 -0.9221  1.0803
  701UDC    C10 7710   0.915   7.315  13.022 -0.4050  0.7092  1.0049
  701UDC    C11 7711   1.031   7.386  12.944  0.0741 -0.2829  0.2121
  702UDC     C1 7712   1.134  16.127   0.305 -0.2438  0.2414  0.7827
  702UDC     C2 7713   1.053  16.074   0.413 -0.0867 -0.6177 -0.4903
  702UDC     C3 7714   0.917  16.007   0.381  0.1864  0.2708 -1.0268
  702UDC     C4 7715   0.802  16.097   0.326 -1.0046  0.7217 -0.6334
  702UDC     C5 7716   0.672  16.018   0.300  0.1984  0.2247  0.1719
  702UDC     C6 7717   0.544  16.095   0.259 -0.8174 -0.6888  0.3539
  702UDC     C7 7718   0.492  16.203   0.349  0.8718 -0.1261  0.6756
  702UDC     C8 7719   0.363  16.277   0.290 -0.0374 -0.5099 -0.6380
  702UDC     C9 7720   0.248  16.170   0.292 -0.0753  0.3961  0.4991
  702UDC    C10 7721   0.110  16.232   0.279 -0.7783  0.0076 -0.7386
  702UDC    C11 7722   0.077  16.345   0.387  0.2629  0.4540 -0.0279
  703UDC     C1 7723  14.494  14.093  15.897 -0.1286  0.6018  1.0396
  703UDC     C2 7724  14.597  14.202  15.919 -0.0436 -0.6059  0.2129
  703UDC     C3 7725  14.577  14.256  16.061  1.3423 -0.1382 -1.4688
  703UDC     C4 7726  14.589  14.158  16.180 -0.1408  0.4051  0.5157
  703UDC     C5 7727  14.499  14.163  16.301  0.0444 -0.2754  0.3379
  703UDC     C6 7728  14.576  14.111  16.420 -1.0604  0.3590 -0.2935
  703UDC     C7 7729  14.690  14.035  16.353  0.5501 -0.0401 -0.6021
  703UDC     C8 7730  14.808  13.999  16.444 -1.2122 -1.3003  0.3808
  703UDC     C9 7731  14.754  13.869  16.518  0.2012 -0.0708  1.2853
  703UDC    C10 7732  14.696  13.763  16.422 -0.4285 -0.6166 -0.7939
  703UDC    C11 7733  14.788  13.714  16.301 -0.4798 -0.5714 -0.9288
  704UDC     C1 7734  13.427   8.440  16.800  0.2634 -0.4569  0.5809
  704UDC     C2 7735  13.327   8.535  16.871 -0.8098 -0.6370 -0.2553
  704UDC     C3 7736  13.336   8.684  16.841  0.5872 -0.6577 -0.0562
  704UDC     C4 7737  13.217   8.773  16.894  0.4542  0.4864 -0.1173
  704UDC     C5 7738  13.268   8.922  16.872 -0.3180  0.9178  0.2667
  704UDC     C6 7739  13.180   9.051  16.863 -0.2903  0.3402 -0.3198
  704UDC     C7 7740  13.118   9.083  16.720  1.7710 -0.4891  0.3949
  704UDC     C8 7741  13.022   9.207  16.737 -0.1415  0.4485 -0.0294
  704UDC     C9 7742  12.916   9.192  16.844  0.5988  0.9807  0.5074
  704UDC    C10 7743  12.787   9.105  16.837  0.3426 -0.8291 -0.1893
  704UDC    C11 7744  12.672   9.121  16.727 -0.7943 -0.3655 -0.3517
  705UDC     C1 7745  18.183  14.681  19.165 -0.1689  0.4640  0.8590
  705UDC     C2 7746  18.269  14.599  19.265 -0.1868  0.5193  0.2061
  705UDC     C3 7747  18.172  14.520  19.359 -0.6037 -0.2142 -0.1988
  705UDC     C4 7748  18.241  14.388  19.399 -0.9857 -1.2627 -0.6960
  705UDC     C5 7749  18.313  14.399  19.536 -0.0635  0.1801  0.3656
  705UDC     C6 7750  18.391  14.523  19.565 -0.3536  0.6766  0.0776
  705UDC     C7 7751  18.465  14.527  19.703  0.1338  0.2267 -0.0528
  705UDC     C8 7752  18.598  14.444  19.697  0.1129  0.6092  0.0616
  705UDC     C9 7753  18.670  14.459  19.834  0.2056 -0.2429  0.5995
  705UDC    C10 7754  18.802  14.391  19.866 -0.4098 -0.6859 -0.9898
  705UDC    C11 7755  18.796  14.237  19.895 -0.9504 -0.4540  0.3524
  706UDC     C1 7756  10.806  16.386  12.303 -0.5405 -0.0746 -1.5039
  706UDC     C2 7757  10.912  16.436  12.402 -0.1031 -0.4957  0.3003
  706UDC     C3 7758  11.036  16.353  12.375  0.7821  0.2044  0.7785
  706UDC     C4 7759  11.031  16.203  12.386 -0.1157 -0.4485  0.1939
  706UDC     C5 7760  11.165  16.142  12.351 -0.0832  0.0188  0.4917
  706UDC     C6 7761  11.257  16.139  12.472  0.2327 -0.7710 -0.8826
  706UDC     C7 7762  11.391  16.064  12.481 -0.2345  0.5963  0.4144
  706UDC     C8 7763  11.352  15.913  12.483 -0.6793 -0.6124  0.6941
  706UDC     C9 7764  11.291  15.869  12.611 -0.0564  1.5772 -0.7348
  706UDC    C10 7765  11.235  15.723  12.600 -0.0471  0.6238  0.1616
  706UDC    C11 7766  11.204  15.655  12.739  0.1986  0.0977 -0.4412
  707UDC     C1 7767   3.256   1.561  11.004  0.7601 -0.0446  1.3805
  707UDC     C2 7768   3.317   1.544  11.147  0.2052  0.3250 -0.5814
  707UDC     C3 7769   3.344   1.396  11.178 -0.0254 -0.1513 -0.8117
  707UDC     C4 7770   3.220   1.305  11.215 -0.2185  0.8477  0.2835
  707UDC     C5 7771   3.278   1.173  11.263  0.8400  0.1933 -0.2795
  707UDC     C6 7772   3.368   1.099  11.164  0.5847  0.0032 -0.8156
  707UDC     C7 7773   3.450   1.001  11.252 -1.0429  0.3637 -0.3064
  707UDC     C8 7774   3.549   1.084  11.333  0.1352  0.4071  0.3844
  707UDC     C9 7775   3.664   1.006  11.376 -0.8697  1.2896  0.1478
  707UDC    C10 7776   3.801   1.028  11.303 -0.6141 -1.0903 -0.3663
  707UDC    C11 7777   3.917   0.927  11.342  0.2787 -0.1556 -0.3338
  708UDC     C1 7778  13.277  16.566   5.503 -1.1854 -0.4977 -0.0080
  708UDC     C2 7779  13.169  16.508   5.412 -0.7434 -0.4114  1.1374
  708UDC     C3 7780  13.045  16.460   5.479 -0.0901 -0.1226  0.1720
  708UDC     C4 7781  13.064  16.317   5.521 -1.1046  0.6242 -0.6708
  708UDC     C5 7782  13.116  16.224   5.413 -0.5482 -0.1915  0.9902
  708UDC     C6 7783  13.148  16.091   5.491  0.1239  0.0502 -0.5840
  708UDC     C7 7784  13.175  15.984   5.388 -0.0960  0.3088  0.6556
  708UDC     C8 7785  13.091  15.948   5.263  1.3081 -0.5453 -0.0151
  708UDC     C9 7786  13.115  15.811   5.199  0.3142 -0.1879  0.1381
  708UDC    C10 7787  13.252  15.803   5.131  0.5340 -0.6721  0.1161
  708UDC    C11 7788  13.273  15.887   5.001  0.3336 -0.2418 -0.2537
  709UDC     C1 7789   1.916   1.258   3.657 -0.0403  0.4916 -0.1031
  709UDC     C2 7790   1.829   1.141   3.603  0.9904 -0.0437 -0.2110
  709UDC     C3 7791   1.730   1.081   3.705  0.6722 -0.0508  0.6595
  709UDC     C4 7792   1.711   0.927   3.666  1.0012 -0.2536  1.1834
  709UDC     C5 7793   1.596   0.840   3.720  0.0006  0.0797  0.0065
  709UDC     C6 7794   1.592   0.833   3.874  0.7227  0.2386 -0.5475
  709UDC     C7 7795   1.683   0.720   3.921  1.1088 -0.2626  0.6629
  709UDC     C8 7796   1.667   0.603   3.820  0.4395  0.7853  0.7547
  709UDC     C9 7797   1.781   0.502   3.816 -0.2158 -0.9388  1.1237
  709UDC    C10 7798   1.922   0.560   3.793  0.3175 -0.0433  0.6666
  709UDC    C11 7799   2.010   0.435   3.774  0.4228  0.6485 -0.2838
  710UDC     C1 7800  18.228  10.674  19.786  0.5774 -0.5686 -0.3018
  710UDC     C2 7801  18.267  10.541  19.856  1.0078  0.2072  0.4121
  710UDC     C3 7802  18.290  10.425  19.758 -0.8509  0.0062  0.6384
  710UDC     C4 7803  18.404  10.328  19.817  0.8482 -0.8860  0.7666
  710UDC     C5 7804  18.380  10.227  19.926  0.4556 -0.7464  0.6388
  710UDC     C6 7805  18.521  10.185  19.984  0.2082  0.0981  0.1137
  710UDC     C7 7806  18.506  10.129  20.123  0.0126  0.0085 -1.0931
  710UDC     C8 7807  18.648  10.148  20.182 -0.6672 -0.8734 -0.0060
  710UDC     C9 7808  18.678  10.040  20.286  0.6971  0.3883 -0.2972
  710UDC    C10 7809  18.817  10.029  20.336  0.3070  0.2096  0.4970
  710UDC    C11 7810  18.835   9.894  20.409  0.6481 -0.1583  0.2398
  711UDC     C1 7811   8.224  11.792   8.384  0.1749  0.0218  0.1062
  711UDC     C2 7812   8.298  11.759   8.252  0.6506 -0.3149 -0.3799
  711UDC     C3 7813   8.193  11.762   8.135  1.2678 -0.4095 -0.5793
  711UDC     C4 7814   8.254  11.778   7.994  0.5200 -1.0501  0.2369
  711UDC     C5 7815   8.343  11.666   7.938  0.7375 -0.4117 -0.1992
  711UDC     C6 7816   8.460  11.720   7.859  0.3225  0.0580 -0.1765
  711UDC     C7 7817   8.591  11.650   7.906  0.6450 -0.5190 -0.2252
  711UDC     C8 7818   8.574  11.502   7.950  1.2927 -0.0678 -0.5726
  711UDC     C9 7819   8.701  11.438   7.988  0.4529 -0.1877 -0.0096
  711UDC    C10 7820   8.698  11.365   8.122 -0.1309 -0.0251  0.6454
  711UDC    C11 7821   8.590  11.257   8.122 -0.9121  0.3536 -0.5474
  712UDC     C1 7822   4.317   9.684  12.679 -0.2262 -0.8538 -0.9485
  712UDC     C2 7823   4.448   9.669  12.607  0.9020 -0.8478 -0.3743
  712UDC     C3 7824   4.543   9.790  12.637  1.6827 -0.7409  0.0076
  712UDC     C4 7825   4.687   9.771  12.592 -0.2012 -0.6661  0.7973
  712UDC     C5 7826   4.776   9.898  12.589  0.5482  0.9260 -0.7013
  712UDC     C6 7827   4.729  10.003  12.488 -1.0495 -0.0362  1.1430
  712UDC     C7 7828   4.826  10.101  12.423  0.5604  0.1809 -0.1170
  712UDC     C8 7829   4.767  10.165  12.299 -0.0177 -0.2641 -0.5886
  712UDC     C9 7830   4.670  10.275  12.344  0.0982 -0.0684 -0.0874
  712UDC    C10 7831   4.626  10.369  12.232 -0.2397  1.3975  0.0205
  712UDC    C11 7832   4.730  10.478  12.197 -0.2818 -0.2005  0.3763
  713UDC     C1 7833   6.637  18.485  18.334 -0.4118 -0.8869  0.1511
  713UDC     C2 7834   6.658  18.617  18.414 -0.1977 -0.4006 -0.7331
  713UDC     C3 7835   6.802  18.641  18.470  0.6899  0.5007 -0.0800
  713UDC     C4 7836   6.909  18.680  18.366 -0.4151 -0.2790  0.5304
  713UDC     C5 7837   7.056  18.671  18.392 -1.1641 -0.5167  0.3518
  713UDC     C6 7838   7.121  18.792  18.475 -0.5110  0.1917  0.3725
  713UDC     C7 7839   7.276  18.798  18.492 -0.1437 -0.4443 -0.5447
  713UDC     C8 7840   7.333  18.731  18.623  0.5020 -0.8379  0.3853
  713UDC     C9 7841   7.296  18.808  18.755  0.3115 -0.4857  0.2008
  713UDC    C10 7842   7.407  18.805  18.856  0.8764 -0.5314 -0.4057
  713UDC    C11 7843   7.343  18.766  18.991 -0.0393  1.2767 -1.2409
  714UDC     C1 7844  14.258  19.999   1.280 -0.7451 -0.8897 -0.0825
  714UDC     C2 7845  14.197  20.086   1.172 -0.5654 -0.0862 -1.5359
  714UDC     C3 7846  14.076  20.172   1.216  0.3751  0.1585  0.2437
  714UDC     C4 7847  14.111  20.320   1.206 -0.5980  0.5000  0.2581
  714UDC     C5 7848  14.020  20.405   1.296  0.7783 -0.2847 -0.0068
  714UDC     C6 7849  14.021  20.556   1.259 -1.0080 -0.1634  0.5090
  714UDC     C7 7850  14.169  20.612   1.245 -0.9423 -1.1654  0.9562
  714UDC     C8 7851  14.167  20.752   1.175 -0.0087  0.2959 -0.5052
  714UDC     C9 7852  14.281  20.854   1.184  0.3555 -0.1781  0.1965
  714UDC    C10 7853  14.227  20.998   1.182 -0.4601  0.6456 -0.0990
  714UDC    C11 7854  14.117  21.022   1.286 -0.2494 -0.0771  0.9689
  715UDC     C1 7855  19.805  19.452  18.957  0.2035 -1.1955  0.3910
  715UDC     C2 7856  19.704  19.466  18.846  0.8565  0.7277 -0.6798
  715UDC     C3 7857  19.556  19.501  18.872 -1.1665  0.1571  0.8651
  715UDC     C4 7858  19.470  19.381  18.889 -0.2573  1.1770 -0.3591
  715UDC     C5 7859  19.334  19.417  18.945  0.2226 -0.8167  0.5159
  715UDC     C6 7860  19.219  19.477  18.857 -0.9806  0.4697 -0.2881
  715UDC     C7 7861  19.089  19.489  18.933  0.7765  0.2581  1.1447
  715UDC     C8 7862  19.024  19.359  18.973  1.0990 -0.4299 -0.2795
  715UDC     C9 7863  18.868  19.341  18.968 -0.6263  0.2434  0.3311
  715UDC    C10 7864  18.861  19.190  18.994 -0.9420 -0.9881 -0.0954
  715UDC    C11 7865  18.736  19.128  18.927 -0.3192  0.7704 -0.0739
  716UDC     C1 7866   2.534  19.956  11.951  0.3847 -0.8415  0.6799
  716UDC     C2 7867   2.415  20.027  11.880 -0.5020  0.2159 -0.6834
  716UDC     C3 7868   2.270  20.026  11.929  0.1069  1.2735  0.3978
  716UDC     C4 7869   2.173  20.105  11.834 -0.6953 -0.0595 -0.4862
  716UDC     C5 7870   2.027  20.092  11.896  0.1308 -0.1731 -0.0787
  716UDC     C6 7871   1.965  19.955  11.854  0.7903 -1.3274  2.2139
  716UDC     C7 7872   1.824  19.918  11.909  0.2390 -1.3883 -0.3288
  716UDC     C8 7873   1.826  19.952  12.055 -0.5114  0.4681 -0.6212
  716UDC     C9 7874   1.705  19.910  12.146 -0.8976 -0.7690  0.1027
  716UDC    C10 7875   1.723  19.930  12.301  0.0982  0.5806  0.5824
  716UDC    C11 7876   1.746  20.068  12.363 -0.2613 -0.2751  0.0892
  717UDC     C1 7877   9.863  16.301  13.766 -0.5907 -0.6442  0.0373
  717UDC     C2 7878   9.906  16.161  13.797 -0.0725 -0.1288  0.2175
  717UDC     C3 7879  10.037  16.160  13.884 -0.4393  0.2149 -0.7918
  717UDC     C4 7880  10.173  16.189  13.820  0.7837  0.5136  0.6267
  717UDC     C5 7881  10.282  16.195  13.931  0.3526 -0.3215 -0.1794
  717UDC     C6 7882  10.430  16.199  13.877  0.4605 -1.0381 -1.3779
  717UDC     C7 7883  10.535  16.233  13.976  0.5181 -0.3634 -0.7106
  717UDC     C8 7884  10.647  16.314  13.916 -0.2093 -0.3729  0.1513
  717UDC     C9 7885  10.755  16.379  14.013  0.0390  0.2105 -1.3153
  717UDC    C10 7886  10.886  16.401  13.932 -0.4720  0.9131 -0.1539
  717UDC    C11 7887  11.000  16.435  14.034  0.7810  0.5304  0.8736
  718UDC     C1 7888  12.563   8.000   3.914  0.0358 -0.3540  0.7064
  718UDC     C2 7889  12.562   7.992   3.762  1.0347  0.8434 -0.3617
  718UDC     C3 7890  12.425   7.933   3.701  0.5353 -0.7512 -0.3396
  718UDC     C4 7891  12.387   7.979   3.552 -0.6305 -0.7232 -1.3235
  718UDC     C5 7892  12.491   7.965   3.433 -1.0096  0.7111 -0.0347
  718UDC     C6 7893  12.650   7.935   3.437 -0.0179  0.5789 -0.0397
  718UDC     C7 7894  12.717   7.944   3.297  1.0990 -0.6949 -0.4106
  718UDC     C8 7895  12.629   7.883   3.191 -0.2801  0.2993 -1.4524
  718UDC     C9 7896  12.626   7.962   3.061 -0.0008 -0.6090 -0.4302
  718UDC    C10 7897  12.567   8.103   3.055  0.0273  0.2262 -0.1899
  718UDC    C11 7898  12.574   8.170   2.910  0.2924 -0.1774 -0.5531
  719UDC     C1 7899  18.276   7.775  14.744  0.5825  0.8454 -1.1480
  719UDC     C2 7900  18.378   7.754  14.638 -1.3107  0.4597  0.3028
  719UDC     C3 7901  18.488   7.649  14.677 -0.3563  0.6789 -1.9880
  719UDC     C4 7902  18.442   7.500  14.662  0.8726 -0.3996 -0.5309
  719UDC     C5 7903  18.559   7.411  14.709 -0.2855 -0.9254 -0.3572
  719UDC     C6 7904  18.521   7.266  14.671  0.2038 -0.2284 -0.8813
  719UDC     C7 7905  18.654   7.178  14.673  0.0966 -0.7987  0.4784
  719UDC     C8 7906  18.632   7.034  14.676 -0.1822  0.6423 -0.0707
  719UDC     C9 7907  18.756   6.951  14.718 -0.3002  0.2712  0.2546
  719UDC    C10 7908  18.834   6.923  14.586 -0.3845 -0.6245  0.1699
  719UDC    C11 7909  18.968   6.844  14.597 -0.0866 -1.0826 -0.3532
  720UDC     C1 7910   0.677  16.933   4.585  0.3820 -1.3234 -1.2767
  720UDC     C2 7911   0.721  16.863   4.457 -0.0833  1.1632 -0.9178
  720UDC     C3 7912   0.820  16.745   4.475  0.2849 -0.1864  2.0121
  720UDC     C4 7913   0.875  16.729   4.327 -0.5080 -0.1527  0.1579
  720UDC     C5 7914   1.003  16.652   4.309  0.3422  0.2892  0.2272
  720UDC     C6 7915   1.138  16.719   4.321  0.2822  0.2895  0.4236
  720UDC     C7 7916   1.180  16.782   4.195 -0.9761  0.0580  0.4012
  720UDC     C8 7917   1.303  16.860   4.219  0.2217  0.3721 -0.8659
  720UDC     C9 7918   1.351  16.955   4.106  0.2407 -0.0597 -1.4294
  720UDC    C10 7919   1.481  17.042   4.123 -0.4692  0.5878 -0.4538
  720UDC    C11 7920   1.612  16.949   4.119 -0.2257  0.2484  0.5160
  721UDC     C1 7921  17.904   1.764   9.504  0.3701  0.1512  0.1164
  721UDC     C2 7922  17.783   1.699   9.427  1.5452  1.1020 -0.2457
  721UDC     C3 7923  17.691   1.610   9.518  0.0243  0.2957  1.1719
  721UDC     C4 7924  17.551   1.583   9.451  0.3376 -0.8224 -1.2210
  721UDC     C5 7925  17.473   1.700   9.389 -0.1531  0.5669 -1.1097
  721UDC     C6 7926  17.337   1.659   9.330  0.2699  0.4552 -0.2967
  721UDC     C7 7927  17.242   1.646   9.455 -0.1587  0.9784 -0.4621
  721UDC     C8 7928  17.220   1.778   9.519  0.1667 -0.7568 -0.8731
  721UDC     C9 7929  17.149   1.771   9.647 -0.5072  0.0415  0.1642
  721UDC    C10 7930  17.009   1.731   9.652  0.3067  0.3787  0.0682
  721UDC    C11 7931  16.947   1.714   9.794 -0.8092  0.9379 -0.4179
  722UDC     C1 7932   0.278  13.748   8.730 -0.0096  0.9309 -1.1422
  722UDC     C2 7933   0.152  13.817   8.681  0.5737 -0.1164  0.7360
  722UDC     C3 7934   0.029  13.818   8.773 -0.7638  0.2487 -0.9039
  722UDC     C4 7935   0.048  13.876   8.915  0.0605  0.9530  0.5665
  722UDC     C5 7936  -0.080  13.867   9.004  0.0057 -0.0607  0.5694
  722UDC     C6 7937  -0.082  13.991   9.100  0.1165 -0.7972  0.0657
  722UDC     C7 7938  -0.219  14.021   9.161  0.6006  0.2998 -0.9006
  722UDC     C8 7939  -0.228  14.157   9.220  0.4529  0.2490  0.1946
  722UDC     C9 7940  -0.348  14.183   9.317 -0.8880 -0.5360 -0.2514
  722UDC    C10 7941  -0.330  14.302   9.410 -0.1968  0.2889  0.2211
  722UDC    C11 7942  -0.453  14.302   9.501 -1.4206  0.0765  0.3250
  723UDC     C1 7943  16.901  16.094  18.776 -0.4130 -0.9485  0.0168
  723UDC     C2 7944  16.862  16.058  18.627 -0.9305 -0.2929 -0.8788
  723UDC     C3 7945  16.933  16.141  18.523 -0.8196  0.2155  2.1103
  723UDC     C4 7946  16.864  16.123  18.381  0.1914 -0.2263  0.3844
  723UDC     C5 7947  16.962  16.143  18.263  0.1607  0.7282  0.0419
  723UDC     C6 7948  16.972  16.032  18.164  0.2277 -0.2551  0.4595
  723UDC     C7 7949  16.876  16.028  18.048  0.3789 -0.4453  0.2598
  723UDC     C8 7950  16.916  15.909  17.971  0.1749 -0.3102 -0.0988
  723UDC     C9 7951  17.060  15.909  17.921 -0.3225  0.4864 -0.4926
  723UDC    C10 7952  17.077  15.815  17.803  0.4232 -0.4674  0.3267
  723UDC    C11 7953  17.041  15.666  17.824  0.5271  0.5092  0.2148
  724UDC     C1 7954   4.337  11.730  17.455 -0.2254 -0.1453 -0.2887
  724UDC     C2 7955   4.208  11.718  17.368 -0.3682  0.6463 -1.1552
  724UDC     C3 7956   4.240  11.650  17.234  0.3525 -0.4759  0.1363
  724UDC     C4 7957   4.148  11.533  17.200 -0.1345  0.8919  0.3735
  724UDC     C5 7958   4.203  11.463  17.074 -0.0503 -0.6885 -1.0221
  724UDC     C6 7959   4.094  11.457  16.966  0.1999  0.0981 -0.5416
  724UDC     C7 7960   4.142  11.410  16.829  0.2688 -1.1019  0.6401
  724UDC     C8 7961   4.137  11.260  16.826 -1.0981  0.6040  0.4028
  724UDC     C9 7962   3.992  11.220  16.861  0.4396 -0.1887  0.2212
  724UDC    C10 7963   3.969  11.079  16.908  0.4340  0.6262 -0.9965
  724UDC    C11 7964   3.827  11.036  16.908 -1.0939  0.0805  0.1458
  725UDC     C1 7965   8.858   3.842  16.413 -0.1580  0.5386  0.7284
  725UDC     C2 7966   8.946   3.820  16.533 -0.1636  0.1622 -1.3305
  725UDC     C3 7967   9.080   3.895  16.535 -0.1714  0.9225  0.0981
  725UDC     C4 7968   9.140   3.882  16.672  0.0634  0.1519 -1.7389
  725UDC     C5 7969   9.282   3.940  16.688  0.3276 -0.8227 -0.8710
  725UDC     C6 7970   9.329   3.953  16.832 -0.1406 -0.5662 -0.3199
  725UDC     C7 7971   9.427   3.834  16.863  0.0775 -1.0634  0.3123
  725UDC     C8 7972   9.430   3.707  16.770  0.1591  0.5341 -0.4195
  725UDC     C9 7973   9.551   3.618  16.780  0.4011  0.9717  0.0483
  725UDC    C10 7974   9.559   3.506  16.678  1.0478 -0.5158  0.2451
  725UDC    C11 7975   9.699   3.437  16.665  0.2262  0.0118  0.7588
  726UDC     C1 7976   9.766  14.044   5.013 -0.4154  0.4044 -0.6382
  726UDC     C2 7977   9.768  14.164   5.107 -0.0257 -0.2434 -0.5211
  726UDC     C3 7978   9.833  14.172   5.251  0.0216  0.4000  0.1180
  726UDC     C4 7979   9.834  14.311   5.308  0.7420  0.7481 -0.1471
  726UDC     C5 7980   9.920  14.413   5.230 -1.0385 -0.5123 -0.0733
  726UDC     C6 7981   9.920  14.526   5.335  0.1544  0.1313 -0.1959
  726UDC     C7 7982   9.778  14.560   5.377 -0.1761 -0.3596  0.3110
  726UDC     C8 7983   9.765  14.696   5.444 -0.1918 -0.0339 -0.5062
  726UDC     C9 7984   9.834  14.804   5.369 -0.1152 -0.4701  0.0790
  726UDC    C10 7985   9.848  14.923   5.460 -0.4921 -0.8377 -0.2663
  726UDC    C11 7986   9.936  14.883   5.574 -0.5191  0.1107 -0.1458
  727UDC     C1 7987  18.236  13.182  17.387 -0.5077  0.1471  0.4166
  727UDC     C2 7988  18.201  13.333  17.381 -0.2911  0.3704 -0.4769
  727UDC     C3 7989  18.302  13.423  17.333 -0.7755 -0.7835  0.0082
  727UDC     C4 7990  18.425  13.452  17.416  0.4787  0.3288 -0.5066
  727UDC     C5 7991  18.440  13.602  17.438 -0.9440 -0.9866  0.0287
  727UDC     C6 7992  18.477  13.668  17.298  0.3206 -1.3025 -1.0017
  727UDC     C7 7993  18.492  13.825  17.313 -0.0658  1.8558 -0.7788
  727UDC     C8 7994  18.514  13.894  17.187 -0.3639 -0.9920 -0.1254
  727UDC     C9 7995  18.578  14.030  17.220 -0.4364 -0.0775  0.9286
  727UDC    C10 7996  18.486  14.087  17.326  0.4813  0.1186  0.4622
  727UDC    C11 7997  18.400  14.198  17.277  0.0083 -0.9950  0.1008
  728UDC     C1 7998  19.497  15.181  17.279  0.9464 -1.0151 -0.5118
  728UDC     C2 7999  19.465  15.037  17.230 -1.4733 -0.2381 -0.2542
  728UDC     C3 8000  19.318  15.010  17.224 -0.4268  0.2577 -0.5163
  728UDC     C4 8001  19.259  15.113  17.313 -0.3731  0.9790 -0.1920
  728UDC     C5 8002  19.112  15.129  17.299  0.5195  0.6768 -0.2686
  728UDC     C6 8003  19.027  15.204  17.399 -0.8837  0.0475  0.3539
  728UDC     C7 8004  18.882  15.232  17.365  1.2928  1.1920  0.2068
  728UDC     C8 8005  18.820  15.331  17.464  1.5450  0.0116  0.5418
  728UDC     C9 8006  18.853  15.479  17.445  0.7519 -0.0824  0.4188
  728UDC    C10 8007  18.792  15.536  17.309 -0.9479  0.2920  0.3871
  728UDC    C11 8008  18.642  15.566  17.299  0.9049  0.1712 -0.3077
  729UDC     C1 8009  14.246   7.501   5.342 -0.3518 -0.5133 -0.6693
  729UDC     C2 8010  14.224   7.410   5.455 -0.9270  0.8249  0.7223
  729UDC     C3 8011  14.276   7.262   5.438 -0.4119 -0.3972  0.2953
  729UDC     C4 8012  14.186   7.193   5.331  0.3324 -0.0660  0.1787
  729UDC     C5 8013  14.262   7.080   5.263  0.9408  0.1022 -0.3210
  729UDC     C6 8014  14.165   7.001   5.179  0.4855 -0.6897  1.1804
  729UDC     C7 8015  14.126   7.089   5.057 -0.6467  0.2268  0.4939
  729UDC     C8 8016  14.009   7.047   4.967 -0.3946 -0.5047 -0.0429
  729UDC     C9 8017  13.865   7.073   4.999  0.3511 -0.7387 -1.3779
  729UDC    C10 8018  13.766   7.113   4.894  0.3086 -0.4851 -0.4892
  729UDC    C11 8019  13.794   7.075   4.751 -0.4352 -0.6358  0.2006
  730UDC     C1 8020   3.900   5.234   4.615  0.9890 -0.8219 -0.5424
  730UDC     C2 8021   3.792   5.333   4.679  0.1504 -1.1644 -0.5754
  730UDC     C3 8022   3.792   5.354   4.836 -0.2245  0.2689  0.6822
  730UDC     C4 8023   3.751   5.242   4.933 -0.2222  0.8364 -0.2813
  730UDC     C5 8024   3.674   5.285   5.053 -0.0235 -1.0074  0.6233
  730UDC     C6 8025   3.652   5.178   5.161  0.0744  0.7714 -0.4346
  730UDC     C7 8026   3.545   5.213   5.270  1.1177 -0.1180  0.8767
  730UDC     C8 8027   3.528   5.363   5.296  0.6267 -0.1574  0.8553
  730UDC     C9 8028   3.398   5.390   5.373  1.0622 -0.9258  0.6548
  730UDC    C10 8029   3.397   5.528   5.441 -0.2102 -1.1486 -0.1492
  730UDC    C11 8030   3.349   5.537   5.582  0.5059 -1.3295  0.5681
  731UDC     C1 8031  16.859  14.802  13.748 -0.1462  1.1357  0.0425
  731UDC     C2 8032  16.852  14.688  13.642 -0.0748  0.1944  0.4371
  731UDC     C3 8033  16.882  14.558  13.718 -0.9063 -0.7197 -0.6332
  731UDC     C4 8034  16.759  14.511  13.799 -1.0689  0.0660 -0.4872
  731UDC     C5 8035  16.793  14.387  13.874 -0.8140  0.3612  0.1212
  731UDC     C6 8036  16.874  14.428  13.999 -0.6875 -0.2625  0.2064
  731UDC     C7 8037  16.886  14.298  14.080 -0.4058 -0.4484 -0.9384
  731UDC     C8 8038  16.974  14.329  14.207  1.1653  0.7117  0.1893
  731UDC     C9 8039  17.101  14.398  14.158  0.8789 -0.4495 -0.5154
  731UDC    C10 8040  17.220  14.306  14.136  0.3094  0.3295  0.8791
  731UDC    C11 8041  17.355  14.362  14.178  0.0835  0.8621  0.4996
  732UDC     C1 8042   1.254  18.302  11.909  0.2948 -0.1017 -0.4514
  732UDC     C2 8043   1.385  18.330  11.839  0.8130 -0.3772  0.9673
  732UDC     C3 8044   1.387  18.451  11.745 -0.1422 -1.0367  0.4745
  732UDC     C4 8045   1.512  18.539  11.768 -0.7717 -0.2512 -0.1528
  732UDC     C5 8046   1.511  18.670  11.672  0.4328 -0.5797  0.9439
  732UDC     C6 8047   1.378  18.748  11.701  1.0850  0.5857  0.5864
  732UDC     C7 8048   1.360  18.753  11.857  0.0001 -0.0067 -0.1075
  732UDC     C8 8049   1.231  18.812  11.917 -1.6441 -0.7603  0.4044
  732UDC     C9 8050   1.208  18.767  12.058 -0.4077  0.8457 -0.0711
  732UDC    C10 8051   1.210  18.618  12.078 -0.5707  0.2608 -0.9357
  732UDC    C11 8052   1.161  18.575  12.212 -0.5080 -0.0571 -0.6852
  733UDC     C1 8053  12.174  12.119  18.483 -0.5467 -0.6030 -0.7792
  733UDC     C2 8054  12.198  11.978  18.546 -0.3012  0.0470 -0.4916
  733UDC     C3 8055  12.325  11.958  18.631  0.8668  0.1557  0.6064
  733UDC     C4 8056  12.335  11.813  18.690  1.2341 -0.3701  1.1052
  733UDC     C5 8057  12.469  11.788  18.765 -0.4978  0.4920  0.2812
  733UDC     C6 8058  12.589  11.846  18.684 -0.4772 -0.4641 -0.0167
  733UDC     C7 8059  12.592  11.769  18.546  1.1132  0.0264 -0.2389
  733UDC     C8 8060  12.579  11.869  18.425 -1.1150 -0.2771  0.6000
  733UDC     C9 8061  12.625  11.789  18.294  0.8532 -0.0903 -0.0548
  733UDC    C10 8062  12.610  11.877  18.166  0.2574  0.5496 -0.2711
  733UDC    C11 8063  12.498  11.978  18.145  0.4740  0.3142  0.4833
  734UDC     C1 8064  15.819   5.911   6.378 -0.7917 -0.3562  0.4442
  734UDC     C2 8065  15.720   5.954   6.268 -0.6046 -0.5361 -0.5251
  734UDC     C3 8066  15.674   5.845   6.173  0.4635 -0.4035  0.3364
  734UDC     C4 8067  15.530   5.862   6.129 -0.4440 -0.7121 -0.1381
  734UDC     C5 8068  15.492   5.728   6.081  0.9490  0.0077 -0.5817
  734UDC     C6 8069  15.349   5.682   6.052  0.1950  0.9235  0.1670
  734UDC     C7 8070  15.364   5.535   6.004  0.8987  0.3186  0.4851
  734UDC     C8 8071  15.235   5.473   5.954 -0.2106  0.0744  0.0989
  734UDC     C9 8072  15.244   5.316   5.953  0.3895  1.0820 -0.3307
  734UDC    C10 8073  15.130   5.243   5.885  0.2863  0.5145  0.7619
  734UDC    C11 8074  15.169   5.104   5.878  1.0136  0.6525  0.5600
  735UDC     C1 8075   0.054  18.346   0.818  0.1369  0.9366 -0.2908
  735UDC     C2 8076   0.038  18.492   0.866  0.1581 -0.2273  0.1577
  735UDC     C3 8077   0.160  18.521   0.950  0.6208 -0.3061 -1.3570
  735UDC     C4 8078   0.133  18.453   1.082  0.2322 -1.8777 -0.8781
  735UDC     C5 8079   0.227  18.531   1.183  0.4031 -0.7975  0.4115
  735UDC     C6 8080   0.244  18.481   1.328 -0.4724  0.7202 -0.7591
  735UDC     C7 8081   0.263  18.585   1.442  0.0508  1.2281  0.3877
  735UDC     C8 8082   0.283  18.535   1.585  0.0826 -0.0898 -0.5376
  735UDC     C9 8083   0.164  18.488   1.658  0.3996  0.1779 -1.5090
  735UDC    C10 8084   0.156  18.349   1.711 -0.4874 -0.2060 -0.1062
  735UDC    C11 8085   0.142  18.240   1.599 -0.7599  0.5362  0.1354
  736UDC     C1 8086  14.465   7.695  14.212 -0.1051  1.7669  0.1363
  736UDC     C2 8087  14.548   7.564  14.189  0.4340  1.2278 -0.4674
  736UDC     C3 8088  14.624   7.560  14.058 -0.5236 -0.3570  1.1442
  736UDC     C4 8089  14.684   7.421  14.050  0.2390  0.1522  0.1510
  736UDC     C5 8090  14.668   7.362  13.913 -0.0946  0.1287 -0.7857
  736UDC     C6 8091  14.784   7.391  13.815  0.7620 -0.3453  0.4263
  736UDC     C7 8092  14.851   7.283  13.731 -0.3023 -0.2619 -0.3238
  736UDC     C8 8093  14.736   7.240  13.627  0.1386  0.5902 -1.2510
  736UDC     C9 8094  14.776   7.164  13.504  0.3830 -0.3331 -0.6792
  736UDC    C10 8095  14.886   7.248  13.429  0.7099 -0.4501  0.2827
  736UDC    C11 8096  14.943   7.197  13.298  0.6591 -0.1942  1.5183
  737UDC     C1 8097  11.853   5.182   7.590 -1.3167 -0.9979  0.6584
  737UDC     C2 8098  11.977   5.206   7.505 -0.5621  0.0713  0.3232
  737UDC     C3 8099  12.060   5.091   7.444  0.3950  0.2935  0.8208
  737UDC     C4 8100  12.190   5.156   7.385  0.1489 -1.2641  0.4749
  737UDC     C5 8101  12.275   5.060   7.306 -0.1440  0.1924  1.1992
  737UDC     C6 8102  12.382   5.142   7.225  0.4419 -0.4744 -0.7110
  737UDC     C7 8103  12.483   5.045   7.158 -0.7378 -1.4561 -0.3269
  737UDC     C8 8104  12.589   5.114   7.069  0.5067  0.2005 -0.0804
  737UDC     C9 8105  12.690   5.205   7.133 -1.0252 -0.0498  1.0183
  737UDC    C10 8106  12.638   5.350   7.163 -0.3299 -0.2892 -0.1809
  737UDC    C11 8107  12.751   5.447   7.214 -0.1709 -0.3965 -0.2967
  738UDC     C1 8108   8.171   6.048  15.129  0.6297 -0.2520  0.0845
  738UDC     C2 8109   8.235   6.031  15.270  1.2216  0.2078 -0.4934
  738UDC     C3 8110   8.155   5.916  15.345 -1.4193  0.9039  0.5630
  738UDC     C4 8111   8.123   5.787  15.268  0.2215  0.5783  0.9908
  738UDC     C5 8112   8.237   5.697  15.205 -0.5194 -1.2527  0.6778
  738UDC     C6 8113   8.363   5.672  15.290 -1.0106  0.0285  0.1974
  738UDC     C7 8114   8.408   5.530  15.245 -0.2162 -0.3679 -0.5768
  738UDC     C8 8115   8.482   5.458  15.354  0.2169 -0.6291 -0.3343
  738UDC     C9 8116   8.536   5.309  15.337 -1.0635 -0.2698  0.4601
  738UDC    C10 8117   8.454   5.197  15.413 -0.4733 -0.0546 -0.3873
  738UDC    C11 8118   8.462   5.071  15.333 -0.5514  0.5593  0.0545
  739UDC     C1 8119   2.664  13.084  16.026 -1.1141 -0.1587  0.1379
  739UDC     C2 8120   2.526  13.060  16.084  0.8351 -0.1213 -0.5156
  739UDC     C3 8121   2.421  13.152  16.017  0.1418  0.3693  0.0282
  739UDC     C4 8122   2.363  13.270  16.094 -1.4381 -0.0994  0.0140
  739UDC     C5 8123   2.296  13.370  16.000 -0.9211  0.2942 -0.3736
  739UDC     C6 8124   2.305  13.513  16.052 -0.1270  0.1789 -0.1097
  739UDC     C7 8125   2.214  13.604  15.958 -0.5842  0.4734  0.2943
  739UDC     C8 8126   2.149  13.720  16.027 -0.1831 -0.9045 -0.9057
  739UDC     C9 8127   2.080  13.821  15.937 -0.9843  0.2323  0.9819
  739UDC    C10 8128   1.965  13.886  16.004  0.4688 -0.1405 -0.9358
  739UDC    C11 8129   1.837  13.925  15.934  0.3457 -0.0048  0.1153
  740UDC     C1 8130  18.993  13.280  14.198  0.0738  0.0411 -0.5200
  740UDC     C2 8131  19.032  13.232  14.055  0.6897 -0.3157  0.4989
  740UDC     C3 8132  18.964  13.104  14.003 -0.2278 -1.0227  0.3166
  740UDC     C4 8133  18.810  13.097  13.983 -0.0880  0.1587  0.1336
  740UDC     C5 8134  18.769  12.950  13.940  0.7288  0.0700 -0.0609
  740UDC     C6 8135  18.831  12.825  13.996 -0.3953 -0.3783 -0.0133
  740UDC     C7 8136  18.802  12.813  14.151 -1.0169 -0.9370  0.5890
  740UDC     C8 8137  18.842  12.664  14.187  1.2733 -0.6420 -0.4383
  740UDC     C9 8138  18.804  12.646  14.336  0.2105  0.4635 -0.0296
  740UDC    C10 8139  18.853  12.726  14.443 -0.9156  0.3506 -0.7789
  740UDC    C11 8140  18.867  12.648  14.584  0.6022  0.0264  0.0849
  741UDC     C1 8141  19.558  17.924  19.092  1.5073 -0.5411  0.5587
  741UDC     C2 8142  19.544  17.770  19.062 -0.2030 -1.1914 -0.0301
  741UDC     C3 8143  19.617  17.749  18.928  0.2404 -0.5826  0.6966
  741UDC     C4 8144  19.542  17.804  18.807  0.8481  0.7535  0.6078
  741UDC     C5 8145  19.598  17.771  18.670 -0.0657 -0.1089 -0.4537
  741UDC     C6 8146  19.535  17.872  18.575 -0.1098  0.2144  0.3591
  741UDC     C7 8147  19.600  17.865  18.436 -1.5664  1.3293 -0.4378
  741UDC     C8 8148  19.756  17.869  18.416  0.3294 -0.9826  0.4961
  741UDC     C9 8149  19.826  18.011  18.442 -0.0739 -0.0373 -0.2513
  741UDC    C10 8150  19.939  18.036  18.340  0.3801 -0.6548  0.0361
  741UDC    C11 8151  20.072  17.954  18.347  0.3365 -0.3034 -0.7532
  742UDC     C1 8152  14.223   4.096   0.775  0.1258 -0.2641  0.6556
  742UDC     C2 8153  14.263   3.950   0.743 -0.1079  0.6641  1.2078
  742UDC     C3 8154  14.156   3.857   0.802 -0.1172 -0.4352  0.4226
  742UDC     C4 8155  14.009   3.891   0.795 -0.5821 -0.2788 -0.1335
  742UDC     C5 8156  13.977   3.909   0.646  0.3345  0.3740  1.3767
  742UDC     C6 8157  13.840   3.851   0.610 -0.5058  0.2170 -0.4483
  742UDC     C7 8158  13.842   3.704   0.561 -0.1219 -0.4504 -0.4106
  742UDC     C8 8159  13.715   3.638   0.508 -0.0146  0.8253  0.5838
  742UDC     C9 8160  13.573   3.673   0.567  0.1408  0.5324 -0.1744
  742UDC    C10 8161  13.454   3.582   0.535 -0.5558  0.3531 -1.2409
  742UDC    C11 8162  13.473   3.488   0.415 -0.8013 -1.3512  0.2794
  743UDC     C1 8163  14.111  18.432   8.992  0.1227 -0.0372  0.9639
  743UDC     C2 8164  14.161  18.309   8.924  0.0044  0.0974  0.2984
  743UDC     C3 8165  14.179  18.325   8.759 -0.2901  0.5821  0.9286
  743UDC     C4 8166  14.333  18.285   8.725  0.2898  1.5147  0.7251
  743UDC     C5 8167  14.379  18.236   8.579  0.1514  0.1621 -0.0636
  743UDC     C6 8168  14.521  18.184   8.592 -0.0682  1.3924 -0.2771
  743UDC     C7 8169  14.596  18.208   8.459 -0.9001 -0.0283 -0.1297
  743UDC     C8 8170  14.741  18.154   8.457 -0.7438  0.3481  0.4809
  743UDC     C9 8171  14.726  18.009   8.496  0.2058  0.8444  0.1119
  743UDC    C10 8172  14.847  17.919   8.501  0.3748  0.3366 -0.1428
  743UDC    C11 8173  14.836  17.775   8.549  0.0811  0.6455 -1.4340
  744UDC     C1 8174  17.671   0.886   9.169 -0.5251  0.0868  0.4245
  744UDC     C2 8175  17.609   1.014   9.217  0.0848 -0.0809 -0.0272
  744UDC     C3 8176  17.602   1.121   9.108  0.2174 -0.2838 -0.1143
  744UDC     C4 8177  17.581   1.272   9.158 -0.1903 -0.4043  0.4711
  744UDC     C5 8178  17.634   1.352   9.045  0.8754 -0.3049  1.1829
  744UDC     C6 8179  17.590   1.494   9.051 -0.0335 -0.6341  1.0043
  744UDC     C7 8180  17.453   1.527   8.986  0.9411  0.2515  0.2033
  744UDC     C8 8181  17.422   1.660   8.929 -0.5350 -1.4052  1.3989
  744UDC     C9 8182  17.316   1.641   8.813 -0.7810 -0.1443 -0.9524
  744UDC    C10 8183  17.360   1.543   8.698 -0.0540  0.0163 -0.4191
  744UDC    C11 8184  17.458   1.613   8.604 -0.0264  0.7929  0.2259
  745UDC     C1 8185  12.107  13.229  12.355 -0.0319  0.2148  0.6931
  745UDC     C2 8186  12.138  13.136  12.470  0.2553  0.4736  0.1450
  745UDC     C3 8187  12.018  13.082  12.544  0.9087  0.2106  0.7316
  745UDC     C4 8188  11.907  13.040  12.439 -0.1990 -0.0729  0.5563
  745UDC     C5 8189  11.806  12.934  12.490  0.5767 -0.7256 -0.1811
  745UDC     C6 8190  11.712  12.869  12.390 -0.5248 -0.0566 -0.2153
  745UDC     C7 8191  11.796  12.822  12.275  0.8258 -0.6489  0.4321
  745UDC     C8 8192  11.730  12.821  12.131  0.1369 -0.7883  0.9830
  745UDC     C9 8193  11.830  12.773  12.021 -0.2978 -0.7415  0.6143
  745UDC    C10 8194  11.959  12.862  12.012 -0.2321  0.5160 -0.4547
  745UDC    C11 8195  12.022  12.859  11.871  0.3925  0.3500 -0.0226
  746UDC     C1 8196  15.402   1.344  10.485 -0.5185  0.2109 -0.3523
  746UDC     C2 8197  15.536   1.383  10.418  0.4798  0.1467 -0.3839
  746UDC     C3 8198  15.629   1.468  10.503 -0.2810 -0.9916  0.3271
  746UDC     C4 8199  15.605   1.478  10.653  0.5231  0.4725 -0.2157
  746UDC     C5 8200  15.725   1.545  10.728 -0.0000  0.0573  0.2222
  746UDC     C6 8201  15.791   1.631  10.619 -0.1220 -0.0553  0.4153
  746UDC     C7 8202  15.877   1.749  10.649 -0.5560  0.3722  0.0955
  746UDC     C8 8203  15.786   1.844  10.734  0.2329 -0.4476 -1.0352
  746UDC     C9 8204  15.813   1.997  10.734  0.4649 -0.1530  0.0420
  746UDC    C10 8205  15.951   2.048  10.798 -0.3105 -0.3584  0.3747
  746UDC    C11 8206  15.944   2.203  10.777  0.0774  0.4715  0.0693
  747UDC     C1 8207   2.904  10.404   8.644 -0.9707 -0.3982 -1.5657
  747UDC     C2 8208   3.037  10.479   8.649 -0.8633 -0.5024 -0.0929
  747UDC     C3 8209   3.151  10.400   8.593 -0.4890  0.3008 -0.8649
  747UDC     C4 8210   3.298  10.458   8.600 -0.4847  0.2638  0.7918
  747UDC     C5 8211   3.397  10.367   8.522  0.6128 -0.6577 -0.6727
  747UDC     C6 8212   3.544  10.395   8.545 -0.3459 -0.5096  0.6289
  747UDC     C7 8213   3.626  10.342   8.426  0.4638  0.2594 -0.0933
  747UDC     C8 8214   3.758  10.427   8.404 -0.2406 -0.8744 -1.3584
  747UDC     C9 8215   3.849  10.361   8.302 -0.5677 -0.2129  0.5590
  747UDC    C10 8216   3.912  10.472   8.217 -0.3971 -0.5119 -0.0430
  747UDC    C11 8217   3.984  10.418   8.102  0.9802 -0.6311  0.5606
  748UDC     C1 8218  15.352  15.267   5.041 -0.2990  0.5378  0.5720
  748UDC     C2 8219  15.252  15.353   4.959  1.0462  0.1396  0.2485
  748UDC     C3 8220  15.284  15.494   4.991 -0.1217  0.0924 -0.5269
  748UDC     C4 8221  15.425  15.555   4.961 -0.5209  0.6722  0.5387
  748UDC     C5 8222  15.437  15.703   5.003 -0.0409  0.4728 -0.3702
  748UDC     C6 8223  15.404  15.733   5.152 -0.3067 -0.1833  0.3539
  748UDC     C7 8224  15.453  15.630   5.259 -0.7738 -0.3286  0.5487
  748UDC     C8 8225  15.408  15.683   5.396  1.2065 -0.9252 -0.2522
  748UDC     C9 8226  15.502  15.772   5.475 -0.8117 -0.5243 -0.4871
  748UDC    C10 8227  15.448  15.849   5.594 -0.9556 -1.4486  0.3500
  748UDC    C11 8228  15.549  15.925   5.688  1.1325 -0.8084  0.1644
  749UDC     C1 8229  16.953  19.191   4.335 -0.1540 -0.5576  0.3213
  749UDC     C2 8230  17.094  19.238   4.366 -0.0333  0.0951 -0.6947
  749UDC     C3 8231  17.111  19.340   4.476 -0.4230 -0.4895 -0.0293
  749UDC     C4 8232  17.012  19.454   4.451  1.5201  1.0072 -0.6727
  749UDC     C5 8233  16.972  19.552   4.564  0.8573  0.7877 -0.3100
  749UDC     C6 8234  16.841  19.617   4.563 -0.0440 -0.1859  0.6501
  749UDC     C7 8235  16.803  19.748   4.634 -0.8111 -0.0828  0.2280
  749UDC     C8 8236  16.717  19.851   4.560  0.2087  0.4822 -0.0846
  749UDC     C9 8237  16.577  19.809   4.538  1.0235 -0.2865  0.4241
  749UDC    C10 8238  16.495  19.766   4.662  0.6870 -0.1955 -0.8829
  749UDC    C11 8239  16.363  19.835   4.634 -1.3727  0.2977 -0.5681
  750UDC     C1 8240   1.926   8.318   9.003 -0.4927 -0.2713 -0.7096
  750UDC     C2 8241   2.066   8.346   9.075 -0.4147 -0.0732 -1.0999
  750UDC     C3 8242   2.065   8.490   9.129 -0.0700 -0.5003 -0.5407
  750UDC     C4 8243   2.190   8.505   9.230  0.3041  0.1706 -0.6449
  750UDC     C5 8244   2.159   8.608   9.343 -0.1500 -0.3538  0.9983
  750UDC     C6 8245   2.241   8.592   9.468  1.2205  0.3431 -0.9721
  750UDC     C7 8246   2.228   8.722   9.555  0.2254  1.7100  0.6758
  750UDC     C8 8247   2.077   8.761   9.579  0.2434  0.2010  0.5537
  750UDC     C9 8248   2.068   8.830   9.717  0.0504  0.1489 -0.6150
  750UDC    C10 8249   1.939   8.904   9.720  0.6663  0.8264  0.7338
  750UDC    C11 8250   1.905   8.908   9.873  0.0641  0.2535  0.2213
  751UDC     C1 8251  12.127   6.689  19.529 -0.7709 -0.4433  0.8712
  751UDC     C2 8252  12.216   6.683  19.403 -0.4739  0.2755 -0.6913
  751UDC     C3 8253  12.328   6.787  19.373 -0.0047 -0.0341 -0.1735
  751UDC     C4 8254  12.405   6.749  19.243 -0.3650  1.7042 -0.0123
  751UDC     C5 8255  12.497   6.848  19.183 -0.2697  0.4206  0.2097
  751UDC     C6 8256  12.484   6.861  19.025  0.0753 -0.7719 -0.0630
  751UDC     C7 8257  12.584   6.974  18.973 -0.6181  1.1996  0.7717
  751UDC     C8 8258  12.578   6.986  18.819 -0.9866  0.5721  0.4533
  751UDC     C9 8259  12.558   6.847  18.745 -0.1635 -0.7106  0.3040
  751UDC    C10 8260  12.576   6.845  18.595  0.0195  0.0804  0.2975
  751UDC    C11 8261  12.527   6.722  18.525 -0.2431  0.4845 -0.4867
  752UDC     C1 8262   6.081   7.364  17.378 -0.3178  0.4006  0.5199
  752UDC     C2 8263   6.141   7.500  17.339 -1.7300  1.2730  0.1357
  752UDC     C3 8264   6.250   7.444  17.258  0.0891  0.1935  0.0858
  752UDC     C4 8265   6.336   7.540  17.184  0.0985  0.5931  0.2483
  752UDC     C5 8266   6.462   7.467  17.133  0.1995  1.0322 -0.0943
  752UDC     C6 8267   6.550   7.572  17.051 -0.4277 -1.0552 -0.3956
  752UDC     C7 8268   6.677   7.503  16.993  0.0314  0.8422 -0.2482
  752UDC     C8 8269   6.747   7.578  16.880  0.4278  1.0258 -0.4146
  752UDC     C9 8270   6.828   7.485  16.788 -0.7031  0.4257  0.3449
  752UDC    C10 8271   6.938   7.555  16.704  1.0171  0.1058  0.0223
  752UDC    C11 8272   7.020   7.651  16.794 -0.3235  0.6107 -0.6205
  753UDC     C1 8273   0.277   0.630   5.127 -0.1270 -0.1994  0.8135
  753UDC     C2 8274   0.334   0.768   5.168 -0.2082  1.1503  0.1523
  753UDC     C3 8275   0.237   0.885   5.165  1.4533  0.9063  0.0256
  753UDC     C4 8276   0.244   0.962   5.040  0.1797  0.7897  0.1983
  753UDC     C5 8277   0.360   1.051   4.995 -0.4271 -0.3484  0.5486
  753UDC     C6 8278   0.332   1.091   4.843  0.3930 -0.3538  0.2655
  753UDC     C7 8279   0.449   1.134   4.755  0.0315  0.3844 -0.2886
  753UDC     C8 8280   0.522   1.252   4.822 -0.2814 -0.3272  0.0020
  753UDC     C9 8281   0.663   1.220   4.865  0.3610  0.1988  1.0888
  753UDC    C10 8282   0.739   1.128   4.767 -0.9744 -1.0475 -0.2828
  753UDC    C11 8283   0.882   1.125   4.819  0.0625  0.0518  0.5462
  754UDC     C1 8284   4.003  19.511  19.101  0.8824 -1.2427 -0.1257
  754UDC     C2 8285   4.142  19.534  19.175 -0.2070  0.6049 -0.6592
  754UDC     C3 8286   4.109  19.617  19.303  0.7679  0.4950 -0.3055
  754UDC     C4 8287   4.215  19.679  19.393 -0.5743 -0.3410 -0.3596
  754UDC     C5 8288   4.213  19.624  19.535 -0.3230  0.5096  0.4611
  754UDC     C6 8289   4.230  19.476  19.581 -0.2967  0.2882 -0.8528
  754UDC     C7 8290   4.369  19.405  19.579 -0.0865 -0.1847  0.9563
  754UDC     C8 8291   4.356  19.282  19.671  0.3312 -0.3549  0.8524
  754UDC     C9 8292   4.241  19.197  19.618  0.2104 -0.6451  0.5477
  754UDC    C10 8293   4.191  19.100  19.725 -0.0221  0.6314 -0.1548
  754UDC    C11 8294   4.054  19.026  19.694 -0.1247  0.2430 -0.3472
  755UDC     C1 8295   7.334  18.194   5.803  0.7264 -0.1568  0.5456
  755UDC     C2 8296   7.218  18.287   5.857  0.6061  0.8963  0.0072
  755UDC     C3 8297   7.141  18.251   5.984 -0.6625 -0.3658 -0.1779
  755UDC     C4 8298   7.063  18.124   5.945  0.3598  1.3076  0.4505
  755UDC     C5 8299   6.983  18.041   6.050 -0.2124  1.3831 -0.2406
  755UDC     C6 8300   6.944  17.901   5.997 -0.5819 -0.7349  0.1120
  755UDC     C7 8301   7.048  17.821   5.912 -0.4464  0.0339  0.1830
  755UDC     C8 8302   6.998  17.673   5.898  0.6980  0.0078 -1.0835
  755UDC     C9 8303   6.969  17.615   6.046 -1.0916 -0.1048 -0.7206
  755UDC    C10 8304   6.878  17.492   6.049  0.7692  0.2522 -0.4402
  755UDC    C11 8305   6.960  17.368   6.098  0.2687  0.1493 -0.4637
  756UDC     C1 8306   6.543   5.478   3.436 -0.1381  0.2048  0.4821
  756UDC     C2 8307   6.609   5.339   3.446 -0.1848 -0.7176 -0.3028
  756UDC     C3 8308   6.557   5.228   3.347 -0.2288  0.0168 -0.2192
  756UDC     C4 8309   6.609   5.089   3.379 -0.1174 -0.1068  0.3565
  756UDC     C5 8310   6.553   4.969   3.301 -0.1857  0.5661  0.2862
  756UDC     C6 8311   6.640   4.844   3.300 -0.6998 -0.8114  0.7566
  756UDC     C7 8312   6.572   4.750   3.201  0.1742 -0.7788 -0.3605
  756UDC     C8 8313   6.647   4.614   3.196  1.2305  0.4674  0.4132
  756UDC     C9 8314   6.583   4.525   3.085  0.7382 -0.1466 -0.1752
  756UDC    C10 8315   6.608   4.373   3.097  0.2672 -0.2132  0.4732
  756UDC    C11 8316   6.674   4.305   3.221  0.7897 -0.3964 -0.0269
  757UDC     C1 8317  10.599   2.857  10.153 -0.6757  0.8285 -0.0680
  757UDC     C2 8318  10.585   2.775  10.022 -0.2996 -0.0928 -0.5028
  757UDC     C3 8319  10.549   2.861   9.906 -0.1374  0.3683 -0.1824
  757UDC     C4 8320  10.489   2.780   9.794  1.2919  0.6861  0.3929
  757UDC     C5 8321  10.439   2.892   9.694  0.4093  0.7225  1.1152
  757UDC     C6 8322  10.380   2.820   9.569  0.1568  0.7109 -0.3874
  757UDC     C7 8323  10.267   2.903   9.510 -0.2599 -0.2727 -0.3881
  757UDC     C8 8324  10.163   2.841   9.413  1.1159  0.3495  0.1847
  757UDC     C9 8325  10.087   2.928   9.307 -0.7819 -1.4658  0.0469
  757UDC    C10 8326  10.012   3.046   9.372 -0.4777  0.3789  0.0747
  757UDC    C11 8327   9.918   3.108   9.276  1.2607  0.8691  0.8121
  758UDC     C1 8328   2.095   9.995   8.880 -0.4298 -0.6966 -0.9956
  758UDC     C2 8329   2.143   9.858   8.926 -0.0108  0.4547 -0.2398
  758UDC     C3 8330   2.122   9.819   9.071  0.6890  0.0674 -0.6072
  758UDC     C4 8331   2.206   9.881   9.182 -0.6827 -0.3341  0.0235
  758UDC     C5 8332   2.213   9.760   9.279  0.8733 -1.0929  0.2801
  758UDC     C6 8333   2.282   9.644   9.219 -0.4436 -0.9727  0.0304
  758UDC     C7 8334   2.419   9.622   9.277 -0.1759 -0.2097 -0.7091
  758UDC     C8 8335   2.428   9.526   9.399 -1.1142 -0.2528  0.3784
  758UDC     C9 8336   2.375   9.588   9.526 -0.3407 -0.6296  0.5122
  758UDC    C10 8337   2.352   9.510   9.657 -0.7429  0.1630 -0.7919
  758UDC    C11 8338   2.437   9.542   9.780 -0.0122  0.7768 -0.4768
  759UDC     C1 8339  13.758  10.002  10.057 -0.2032 -0.2295  0.2832
  759UDC     C2 8340  13.803  10.141   9.992 -0.5282  1.3460 -0.1064
  759UDC     C3 8341  13.848  10.120   9.843  0.8361  0.4829 -0.4863
  759UDC     C4 8342  13.875  10.241   9.756  0.2952 -0.6672  0.4548
  759UDC     C5 8343  13.826  10.236   9.610 -0.0546 -0.9285 -0.0040
  759UDC     C6 8344  13.865  10.111   9.525  0.0023 -0.0643 -0.6986
  759UDC     C7 8345  13.816   9.969   9.555 -0.4277  0.3527 -0.0338
  759UDC     C8 8346  13.772   9.888   9.431  0.6082  0.4690  0.6220
  759UDC     C9 8347  13.640   9.914   9.369  0.5531  1.0340  0.4168
  759UDC    C10 8348  13.505   9.902   9.434  0.0998 -0.3293 -0.4814
  759UDC    C11 8349  13.481   9.773   9.521  0.2061  0.4050  0.7420
  760UDC     C1 8350   9.311   4.227  19.467  0.9621  1.3291 -0.6271
  760UDC     C2 8351   9.278   4.105  19.555  0.4892 -0.0759 -0.6264
  760UDC     C3 8352   9.208   4.130  19.683  0.0928 -0.2749  0.2358
  760UDC     C4 8353   9.082   4.214  19.663  0.5979 -0.7353  0.1967
  760UDC     C5 8354   9.028   4.292  19.788 -0.5778 -1.5424 -0.1750
  760UDC     C6 8355   8.889   4.251  19.837  0.1334 -0.4702 -0.1736
  760UDC     C7 8356   8.851   4.266  19.983  0.5905  0.3792  0.4252
  760UDC     C8 8357   8.754   4.163  20.040  0.0785 -0.6653  0.2679
  760UDC     C9 8358   8.793   4.072  20.158 -0.8884  0.2333  0.0741
  760UDC    C10 8359   8.774   4.143  20.286  1.3304  0.4732 -0.5214
  760UDC    C11 8360   8.870   4.093  20.390  1.0854  0.0513  0.0930
  761UDC     C1 8361   8.033  10.256   2.307 -0.7767 -0.2094 -0.5060
  761UDC     C2 8362   8.022  10.173   2.181 -0.3025  1.1543  0.3231
  761UDC     C3 8363   8.091  10.215   2.044 -0.1033  0.0770 -0.4137
  761UDC     C4 8364   8.236  10.273   2.039  0.4404  0.2870  0.8841
  761UDC     C5 8365   8.269  10.326   1.901  0.1787  0.0816  1.0648
  761UDC     C6 8366   8.179  10.442   1.852 -0.2327 -0.5225  0.1010
  761UDC     C7 8367   8.261  10.537   1.758  0.0658 -0.0694  0.3065
  761UDC     C8 8368   8.232  10.686   1.745 -0.0530  0.1491  0.3595
  761UDC     C9 8369   8.345  10.769   1.679  0.1392  1.6443  1.1838
  761UDC    C10 8370   8.294  10.902   1.621  0.3305 -0.7628  0.5214
  761UDC    C11 8371   8.148  10.902   1.575  1.0430 -0.6461  0.7809
  762UDC     C1 8372   2.227  14.494  16.475 -0.3791 -0.3751  0.0281
  762UDC     C2 8373   2.284  14.451  16.605 -0.1534  0.4381  0.0663
  762UDC     C3 8374   2.258  14.310  16.663 -0.9455 -0.6828 -1.2375
  762UDC     C4 8375   2.255  14.195  16.568 -0.6137 -0.2919 -0.8224
  762UDC     C5 8376   2.259  14.065  16.657 -0.4679 -0.3201 -0.3619
  762UDC     C6 8377   2.288  13.942  16.571 -0.8311  0.6008 -1.4631
  762UDC     C7 8378   2.439  13.932  16.550 -0.6123  1.1305 -0.7559
  762UDC     C8 8379   2.485  13.831  16.445  0.7389 -0.8187 -0.0753
  762UDC     C9 8380   2.626  13.837  16.398 -0.6726  1.0510 -1.3119
  762UDC    C10 8381   2.656  13.719  16.299  1.0041 -0.2712  0.7356
  762UDC    C11 8382   2.805  13.719  16.271  0.0821  0.6063 -0.8575
  763UDC     C1 8383   4.354  11.530  12.803  0.2420  0.3313  1.1099
  763UDC     C2 8384   4.296  11.387  12.787 -0.6203 -0.8688 -0.1962
  763UDC     C3 8385   4.416  11.322  12.717  0.3292  1.0354 -0.4184
  763UDC     C4 8386   4.532  11.281  12.813  1.4490  0.6553 -0.3882
  763UDC     C5 8387   4.667  11.220  12.759 -0.3574  0.8217 -0.8648
  763UDC     C6 8388   4.765  11.197  12.876 -0.7512 -0.5557 -0.2334
  763UDC     C7 8389   4.895  11.122  12.844 -1.3902  0.5226 -1.1946
  763UDC     C8 8390   4.870  10.971  12.829 -0.3598 -0.0357 -0.8361
  763UDC     C9 8391   4.821  10.869  12.939 -0.6612 -0.4340 -0.9566
  763UDC    C10 8392   4.678  10.885  13.003 -0.4594  1.3564  0.4163
  763UDC    C11 8393   4.623  10.763  13.085 -0.3447  0.3486  0.3924
  764UDC     C1 8394   4.224  16.568   5.492  0.7027 -0.4272  0.2866
  764UDC     C2 8395   4.228  16.417   5.524  0.8598 -1.4162 -1.1705
  764UDC     C3 8396   4.118  16.338   5.593  0.0019  0.1169  0.7972
  764UDC     C4 8397   4.001  16.325   5.491 -0.1800  0.0547 -0.2606
  764UDC     C5 8398   3.867  16.278   5.562 -0.1962 -0.0414  1.4986
  764UDC     C6 8399   3.738  16.329   5.495 -0.4300 -0.7177 -1.0490
  764UDC     C7 8400   3.727  16.276   5.351 -0.1465 -0.2303 -0.1884
  764UDC     C8 8401   3.595  16.282   5.282  1.1905 -1.1001 -0.1995
  764UDC     C9 8402   3.602  16.215   5.146 -0.3272 -0.6081 -0.1084
  764UDC    C10 8403   3.451  16.198   5.100  0.3011  0.3727  0.5702
  764UDC    C11 8404   3.449  16.202   4.939 -0.0781  0.0791 -0.6325
  765UDC     C1 8405   9.375  15.558   8.181 -0.5406  0.0753  0.0250
  765UDC     C2 8406   9.245  15.521   8.105 -0.4559 -0.3105  1.0024
  765UDC     C3 8407   9.138  15.620   8.145 -0.0873 -1.0802 -1.1852
  765UDC     C4 8408   9.184  15.768   8.165  0.5187 -0.3329  0.4684
  765UDC     C5 8409   9.063  15.853   8.227 -1.2846 -0.5297  0.4703
  765UDC     C6 8410   9.081  15.999   8.180  0.8725  0.6751  0.1609
  765UDC     C7 8411   9.182  16.077   8.268  0.5717  0.2149 -0.7602
  765UDC     C8 8412   9.225  16.201   8.199 -0.4919 -0.1049 -0.3163
  765UDC     C9 8413   9.274  16.199   8.053 -0.5640 -0.4301  0.5737
  765UDC    C10 8414   9.338  16.321   7.998  0.0026  0.9126  0.2021
  765UDC    C11 8415   9.436  16.289   7.883 -0.3343 -0.1303  0.0419
  766UDC     C1 8416   9.797   7.790  15.856  0.1039  0.1801  0.4497
  766UDC     C2 8417   9.792   7.648  15.909  1.0955 -0.5394 -1.1105
  766UDC     C3 8418   9.880   7.650  16.040 -0.0230 -0.2278  0.9916
  766UDC     C4 8419  10.002   7.734  16.000  0.4257  0.0490 -0.0388
  766UDC     C5 8420  10.123   7.650  15.966  0.6164  0.2060 -0.1677
  766UDC     C6 8421  10.250   7.735  15.939  0.2785  0.1803  0.1794
  766UDC     C7 8422  10.384   7.663  15.968 -0.2477 -0.8294 -0.1590
  766UDC     C8 8423  10.392   7.635  16.120  0.4025  0.3231 -0.6227
  766UDC     C9 8424  10.519   7.558  16.159 -0.3234 -1.2188 -0.4890
  766UDC    C10 8425  10.525   7.538  16.311 -1.1045 -0.3649  0.1400
  766UDC    C11 8426  10.668   7.537  16.378 -0.0823 -0.5632 -0.2145
  767UDC     C1 8427   3.620  18.581  17.745 -0.1330  0.5538 -0.4536
  767UDC     C2 8428   3.585  18.485  17.629 -0.2230  1.1751  0.5475
  767UDC     C3 8429   3.503  18.355  17.658 -0.0275  0.1503  0.0711
  767UDC     C4 8430   3.488  18.281  17.524 -0.1120 -0.7726 -0.7823
  767UDC     C5 8431   3.413  18.374  17.422 -0.6751  0.8956 -0.3874
  767UDC     C6 8432   3.410  18.313  17.282 -0.2481 -0.7013 -0.5027
  767UDC     C7 8433   3.325  18.412  17.197 -0.0430 -0.0581  0.2053
  767UDC     C8 8434   3.375  18.559  17.196  0.3880  1.0480  0.7481
  767UDC     C9 8435   3.519  18.571  17.148  0.3739 -0.3339 -0.2117
  767UDC    C10 8436   3.557  18.536  17.003  1.3766  0.5993  0.6608
  767UDC    C11 8437   3.587  18.382  17.003  1.2759 -0.3159  0.2789
  768UDC     C1 8438  19.114  12.619   4.944  0.3776  0.3405 -0.6831
  768UDC     C2 8439  19.065  12.690   5.074  0.3929 -0.5273  0.2417
  768UDC     C3 8440  19.087  12.845   5.054 -0.2242 -1.2723  0.9177
  768UDC     C4 8441  19.086  12.919   5.182 -0.1250 -0.3540  0.5423
  768UDC     C5 8442  18.941  12.909   5.233  0.3833 -0.8298 -0.4941
  768UDC     C6 8443  18.918  13.014   5.341  0.1411  0.2296  1.1939
  768UDC     C7 8444  18.820  12.971   5.444  0.0257 -0.8621 -0.0328
  768UDC     C8 8445  18.723  13.068   5.513  0.2714  0.1816 -0.8652
  768UDC     C9 8446  18.619  13.004   5.614 -1.3226 -0.8681 -0.8196
  768UDC    C10 8447  18.581  13.087   5.742  0.1100 -0.2844 -0.3915
  768UDC    C11 8448  18.444  13.150   5.744 -0.1696  0.3005  0.3414
  769UDC     C1 8449  12.708  16.870   5.539 -0.1926 -0.3665  0.3758
  769UDC     C2 8450  12.583  16.821   5.463  0.4348  1.0212 -0.7579
  769UDC     C3 8451  12.592  16.807   5.310  0.1477 -1.0741  0.2739
  769UDC     C4 8452  12.662  16.679   5.260 -0.4489  0.1929  0.1319
  769UDC     C5 8453  12.617  16.668   5.115  0.5315 -0.1634 -0.1032
  769UDC     C6 8454  12.703  16.552   5.058 -0.4096 -0.3508 -0.1146
  769UDC     C7 8455  12.694  16.424   5.151  0.0969  0.1316 -0.0901
  769UDC     C8 8456  12.564  16.348   5.127 -0.5154 -1.1412  0.5974
  769UDC     C9 8457  12.570  16.216   5.039  0.7287  0.4201 -1.0901
  769UDC    C10 8458  12.424  16.180   4.996 -0.2511  1.1887 -0.9840
  769UDC    C11 8459  12.351  16.298   4.937 -0.1033 -1.0354 -0.6214
  770UDC     C1 8460   0.559  12.732  13.444  0.6932  0.6906 -0.3078
  770UDC     C2 8461   0.477  12.703  13.572  0.8568 -0.6972 -0.3176
  770UDC     C3 8462   0.336  12.777  13.567 -0.5380 -0.8043  0.0061
  770UDC     C4 8463   0.355  12.928  13.525 -0.4797  0.2612 -0.5243
  770UDC     C5 8464   0.398  13.025  13.642  0.5607  0.8448 -0.3924
  770UDC     C6 8465   0.413  13.174  13.601  0.8991 -1.2757 -0.1100
  770UDC     C7 8466   0.532  13.183  13.514 -0.0722 -0.3106  1.1317
  770UDC     C8 8467   0.558  13.327  13.486 -0.4163 -0.7884  0.6552
  770UDC     C9 8468   0.669  13.347  13.380  0.2008  1.1493  0.0490
  770UDC    C10 8469   0.628  13.350  13.231 -1.8799  0.5737 -0.0981
  770UDC    C11 8470   0.588  13.494  13.188 -0.2050 -0.7508 -0.1925
  771UDC     C1 8471   7.668  17.875   1.506  0.3316  0.5599  0.4493
  771UDC     C2 8472   7.596  17.737   1.492 -0.1900 -0.8831  0.7164
  771UDC     C3 8473   7.634  17.666   1.363  0.7821 -0.4933  0.5144
  771UDC     C4 8474   7.581  17.519   1.339  0.2053  0.3518  0.2254
  771UDC     C5 8475   7.430  17.496   1.354 -1.0990 -0.8172  0.1165
  771UDC     C6 8476   7.359  17.485   1.216 -0.1982  0.3671 -0.0864
  771UDC     C7 8477   7.232  17.401   1.230  1.0545 -0.7233 -0.2313
  771UDC     C8 8478   7.137  17.459   1.343  0.1932  0.3471 -0.0737
  771UDC     C9 8479   7.042  17.576   1.314  0.0107  1.0329  0.9077
  771UDC    C10 8480   6.973  17.640   1.435 -0.5069  0.5146  0.8666
  771UDC    C11 8481   6.849  17.726   1.424  0.2093 -0.8082 -0.2552
  772UDC     C1 8482   1.016   9.062  10.919  0.2504  0.2558 -0.2254
  772UDC     C2 8483   1.128   8.957  10.918 -0.7010  0.2743 -0.3537
  772UDC     C3 8484   1.248   8.979  10.820 -0.9388 -0.0253 -0.8948
  772UDC     C4 8485   1.263   8.883  10.700  0.0901 -1.0065  0.7332
  772UDC     C5 8486   1.387   8.793  10.723 -0.8636 -1.6103 -0.6702
  772UDC     C6 8487   1.509   8.887  10.703 -0.0559 -0.1080  1.1199
  772UDC     C7 8488   1.650   8.832  10.685 -0.9389 -0.0575 -0.2811
  772UDC     C8 8489   1.656   8.771  10.548 -1.1817 -0.6281  0.1626
  772UDC     C9 8490   1.679   8.876  10.428 -0.3187  0.3198  0.2760
  772UDC    C10 8491   1.804   8.841  10.346 -0.9451 -0.4277  0.7101
  772UDC    C11 8492   1.788   8.902  10.205  0.0274  0.3231  1.1467
  773UDC     C1 8493  13.065   7.286   7.163 -0.8857 -0.1298 -0.0576
  773UDC     C2 8494  13.208   7.278   7.206 -0.0654  0.4633  0.8993
  773UDC     C3 8495  13.323   7.286   7.102  0.0517  0.8665 -1.3265
  773UDC     C4 8496  13.452   7.329   7.173  0.8925  1.1835 -0.4042
  773UDC     C5 8497  13.573   7.328   7.080  0.0349  0.1165 -0.1179
  773UDC     C6 8498  13.614   7.185   7.047  0.7440  0.3572 -0.3114
  773UDC     C7 8499  13.676   7.119   7.171  1.1837  0.2672 -0.1579
  773UDC     C8 8500  13.783   7.016   7.128  0.0920  0.1431 -0.6410
  773UDC     C9 8501  13.849   6.958   7.247  0.3246 -0.1462  0.4943
  773UDC    C10 8502  13.850   6.802   7.258  0.6679  0.8583 -0.1279
  773UDC    C11 8503  13.919   6.732   7.369  0.5235  0.6754  0.0036
  774UDC     C1 8504  16.119   1.971   6.017  0.0116  0.6134 -0.0274
  774UDC     C2 8505  16.230   1.923   5.914  0.2467 -0.7836  0.1907
  774UDC     C3 8506  16.214   1.795   5.846 -0.4755  0.1837  0.5228
  774UDC     C4 8507  16.301   1.808   5.725 -0.9963 -0.3132 -0.4977
  774UDC     C5 8508  16.300   1.679   5.641  0.0837  0.3640 -0.2079
  774UDC     C6 8509  16.407   1.656   5.538 -0.0288 -0.2426  0.5803
  774UDC     C7 8510  16.389   1.563   5.412  0.6922  0.2952 -0.8732
  774UDC     C8 8511  16.264   1.594   5.326 -0.5581 -0.7281  0.5191
  774UDC     C9 8512  16.282   1.589   5.174  0.7061 -0.3555  0.0628
  774UDC    C10 8513  16.170   1.666   5.088 -0.9213  0.4241 -0.9605
  774UDC    C11 8514  16.028   1.659   5.141 -0.2812 -0.6910 -1.0939
  775UDC     C1 8515  19.550  15.610   3.455  0.5837 -0.6698  0.2456
  775UDC     C2 8516  19.642  15.624   3.337  0.3735 -0.5774  1.1373
  775UDC     C3 8517  19.711  15.761   3.364 -1.1232  0.1872 -0.7291
  775UDC     C4 8518  19.617  15.874   3.403  0.7218  0.1952  0.1396
  775UDC     C5 8519  19.678  16.014   3.430  1.1514 -0.0137 -0.2082
  775UDC     C6 8520  19.648  16.099   3.554  0.8050  0.6925 -0.2445
  775UDC     C7 8521  19.691  16.044   3.694 -0.1295  0.3946  0.1076
  775UDC     C8 8522  19.580  15.996   3.782  0.0538  0.1855 -0.4733
  775UDC     C9 8523  19.498  16.120   3.809 -0.1401 -0.0951  0.5479
  775UDC    C10 8524  19.419  16.104   3.949 -0.6886 -0.3837  1.7008
  775UDC    C11 8525  19.368  16.234   4.002 -0.1333 -0.1832 -0.9302
  776UDC     C1 8526   0.526   4.924   0.888 -0.4400 -0.0125 -0.4895
  776UDC     C2 8527   0.576   4.980   1.027 -0.5089 -0.5358  0.1285
  776UDC     C3 8528   0.698   4.894   1.059  0.7271  0.3001 -0.7511
  776UDC     C4 8529   0.659   4.743   1.078  0.3170 -0.1887 -0.4801
  776UDC     C5 8530   0.770   4.634   1.097  1.1054  0.0670 -0.0306
  776UDC     C6 8531   0.868   4.645   1.213  0.0905 -0.5559  0.0943
  776UDC     C7 8532   0.912   4.503   1.243  0.4082  0.2315  1.1799
  776UDC     C8 8533   1.065   4.484   1.227 -0.3240  0.2329  0.2910
  776UDC     C9 8534   1.113   4.448   1.083 -0.1832  0.0486  0.3906
  776UDC    C10 8535   1.236   4.535   1.038  0.8352  0.8923 -0.6848
  776UDC    C11 8536   1.344   4.491   0.935 -1.4812  1.0270  1.0916
  777UDC     C1 8537   0.051  19.915   6.845 -0.5641 -0.4865  1.2789
  777UDC     C2 8538  -0.006  20.028   6.751  0.4456  0.9858  1.1752
  777UDC     C3 8539  -0.159  20.022   6.734  1.0640 -0.0221  0.7816
  777UDC     C4 8540  -0.244  20.110   6.643 -0.0384 -0.9566  0.1720
  777UDC     C5 8541  -0.379  20.030   6.619 -1.1195  0.6211  0.8480
  777UDC     C6 8542  -0.502  20.102   6.577  0.1415  0.1810 -0.5171
  777UDC     C7 8543  -0.571  20.040   6.456  0.2154  0.5307 -1.2066
  777UDC     C8 8544  -0.566  20.133   6.336  0.8366 -0.3409  0.2223
  777UDC     C9 8545  -0.649  20.098   6.207 -0.2337 -0.0922  0.4093
  777UDC    C10 8546  -0.603  19.976   6.122 -0.5005 -0.7488  1.0130
  777UDC    C11 8547  -0.472  19.990   6.046 -0.8699  0.0530 -0.8593
  778UDC     C1 8548   4.053  16.726   0.671 -0.1484  0.0793  1.0622
  778UDC     C2 8549   4.030  16.576   0.682 -0.6782 -0.1973 -0.7016
  778UDC     C3 8550   4.095  16.515   0.811  0.1856  0.9400 -0.8060
  778UDC     C4 8551   4.246  16.485   0.794  0.2132 -0.1668 -0.6003
  778UDC     C5 8552   4.276  16.441   0.938 -0.8530  0.5596 -0.1856
  778UDC     C6 8553   4.387  16.329   0.917 -0.7460  0.2446 -0.0191
  778UDC     C7 8554   4.528  16.359   0.965  1.4581  0.5982  0.8081
  778UDC     C8 8555   4.555  16.510   0.960  0.6803 -0.7662  0.7984
  778UDC     C9 8556   4.697  16.554   0.982  0.6716  0.3459 -0.2299
  778UDC    C10 8557   4.780  16.559   0.860  0.1219  0.3712  0.3055
  778UDC    C11 8558   4.925  16.603   0.886 -1.0763 -0.7456  0.2650
  779UDC     C1 8559  16.653   4.406   6.736  0.8555 -0.5055 -0.5939
  779UDC     C2 8560  16.626   4.327   6.609 -0.6279 -0.7014 -0.1018
  779UDC     C3 8561  16.490   4.345   6.533 -0.2639  1.2563 -0.4003
  779UDC     C4 8562  16.444   4.488   6.501  0.4144 -0.4255 -0.5512
  779UDC     C5 8563  16.351   4.522   6.381  0.0681  0.4580  0.3748
  779UDC     C6 8564  16.415   4.514   6.247  0.2344  0.2840 -0.2268
  779UDC     C7 8565  16.450   4.645   6.178  1.0184  1.3283  1.0509
  779UDC     C8 8566  16.501   4.611   6.040  0.4266 -0.1812 -0.0991
  779UDC     C9 8567  16.540   4.737   5.964  0.5547 -0.8907 -0.0165
  779UDC    C10 8568  16.585   4.711   5.824 -0.6568  0.2426 -0.2980
  779UDC    C11 8569  16.591   4.837   5.752 -0.0716  0.7869  0.4252
  780UDC     C1 8570  18.176  17.855  12.602  0.2541  1.2642  0.4624
  780UDC     C2 8571  18.135  17.755  12.707  0.0579  0.2212  0.7412
  780UDC     C3 8572  18.010  17.660  12.681 -0.1132 -0.1082 -0.4157
  780UDC     C4 8573  17.954  17.595  12.807  0.5451 -0.4456 -1.5727
  780UDC     C5 8574  17.868  17.687  12.891  0.1201  0.6773  0.5046
  780UDC     C6 8575  17.768  17.776  12.819  0.1000  0.0635 -0.5407
  780UDC     C7 8576  17.725  17.918  12.870 -0.7580  0.0586  0.2270
  780UDC     C8 8577  17.724  18.024  12.756  1.2611  0.4171  0.8329
  780UDC     C9 8578  17.710  18.158  12.827  1.0269 -0.6416  0.3864
  780UDC    C10 8579  17.660  18.278  12.739  0.1938  0.9653  0.4167
  780UDC    C11 8580  17.739  18.331  12.629 -0.8189  0.6556 -0.7698
  781UDC     C1 8581  11.884   6.451  19.084  0.1164  0.5899 -1.0381
  781UDC     C2 8582  11.760   6.371  19.129  0.1098 -0.8635 -0.7243
  781UDC     C3 8583  11.771   6.322  19.275 -0.3783 -0.2080  0.3722
  781UDC     C4 8584  11.687   6.205  19.324 -0.2995  0.2479 -0.3200
  781UDC     C5 8585  11.547   6.235  19.380  0.1071 -1.3361 -0.3838
  781UDC     C6 8586  11.568   6.316  19.513  0.2164  0.4323  0.1980
  781UDC     C7 8587  11.452   6.415  19.549 -1.2909  0.5748  1.1988
  781UDC     C8 8588  11.507   6.527  19.645  0.5415 -0.0037  0.0417
  781UDC     C9 8589  11.383   6.591  19.716  0.0633 -0.0154  0.1505
  781UDC    C10 8590  11.279   6.634  19.610  0.7213 -0.3090 -0.1573
  781UDC    C11 8591  11.151   6.685  19.664 -0.1511  0.3346  0.7842
  782UDC     C1 8592   2.895   4.313  14.263  0.2712 -0.6969  0.5770
  782UDC     C2 8593   2.869   4.421  14.150 -0.8342  0.7027  0.5642
  782UDC     C3 8594   2.995   4.482  14.075 -0.7493  0.9345  0.2157
  782UDC     C4 8595   3.077   4.393  13.968  1.3207  0.1664 -0.5215
  782UDC     C5 8596   2.990   4.332  13.855 -0.9032  0.1602  0.3761
  782UDC     C6 8597   2.943   4.426  13.741 -0.8288  0.5533  0.4997
  782UDC     C7 8598   3.050   4.431  13.628  0.2310 -1.5361  0.4023
  782UDC     C8 8599   3.022   4.539  13.519 -0.3462 -0.1252 -0.0365
  782UDC     C9 8600   3.090   4.522  13.379  0.3795 -0.0239 -0.6757
  782UDC    C10 8601   3.082   4.644  13.290  1.5795 -0.9879  0.0965
  782UDC    C11 8602   2.943   4.644  13.227  0.2773 -0.5029 -0.0525
  783UDC     C1 8603   7.012  17.012  16.618 -0.0655  0.8858 -0.0425
  783UDC     C2 8604   7.154  17.053  16.565 -0.1783 -0.8448  0.9102
  783UDC     C3 8605   7.164  17.171  16.472  0.9755 -0.2976  0.2594
  783UDC     C4 8606   7.306  17.201  16.412  0.1355  0.7823 -0.0347
  783UDC     C5 8607   7.323  17.305  16.303 -0.3887  0.0929  1.0958
  783UDC     C6 8608   7.332  17.445  16.367 -0.6026  0.0986 -0.9885
  783UDC     C7 8609   7.357  17.566  16.279  0.3859 -1.4140 -0.1562
  783UDC     C8 8610   7.268  17.564  16.155 -0.8234  0.5204 -0.3869
  783UDC     C9 8611   7.163  17.679  16.150  0.1846  0.1878  0.7571
  783UDC    C10 8612   7.068  17.694  16.272 -0.6379  0.2751  0.5255
  783UDC    C11 8613   6.922  17.676  16.216 -0.2181 -0.1616  0.2022
  784UDC     C1 8614  10.820   5.816   5.453 -0.2641 -0.6959 -0.9656
  784UDC     C2 8615  10.691   5.860   5.527 -1.0462 -0.0593 -0.3062
  784UDC     C3 8616  10.714   5.812   5.669  0.7869  0.3838 -0.8876
  784UDC     C4 8617  10.590   5.809   5.754 -0.2520 -0.5162 -0.0333
  784UDC     C5 8618  10.606   5.735   5.885  0.1708  0.1054 -0.6631
  784UDC     C6 8619  10.620   5.577   5.892 -1.2127 -0.8848  0.4448
  784UDC     C7 8620  10.613   5.520   6.029 -0.3682  0.2773 -0.6114
  784UDC     C8 8621  10.634   5.369   6.043  0.2146  0.6974 -0.3202
  784UDC     C9 8622  10.596   5.288   6.178 -0.0906 -0.3943  0.7320
  784UDC    C10 8623  10.550   5.143   6.174 -1.0850  0.6675  0.5442
  784UDC    C11 8624  10.400   5.109   6.163 -0.0728  0.2142  0.7584
  785UDC     C1 8625   2.313  14.258   6.273  1.0821  0.6335  0.0157
  785UDC     C2 8626   2.346  14.137   6.177 -0.5611 -0.5635  0.0914
  785UDC     C3 8627   2.218  14.047   6.171  0.2709 -0.9495 -0.5879
  785UDC     C4 8628   2.108  14.087   6.283 -0.5093  1.1535  0.0680
  785UDC     C5 8629   1.979  13.997   6.275  0.3397 -1.3874  1.7213
  785UDC     C6 8630   2.002  13.857   6.333  0.3315 -0.2040  0.6916
  785UDC     C7 8631   2.032  13.826   6.478  0.2071  0.5194 -0.3232
  785UDC     C8 8632   2.153  13.887   6.556  0.0627 -0.5972  0.2028
  785UDC     C9 8633   2.124  13.999   6.660  0.1960  0.1296  0.3756
  785UDC    C10 8634   2.257  14.036   6.724 -0.9052  0.3372  0.0046
  785UDC    C11 8635   2.271  14.162   6.816 -0.5562 -0.4565  0.1846
  786UDC     C1 8636  18.584   8.563   0.982 -0.4546 -0.7230  0.9403
  786UDC     C2 8637  18.510   8.657   0.896 -0.1311  0.8295  0.1954
  786UDC     C3 8638  18.472   8.587   0.765 -0.0116  0.9391 -0.4237
  786UDC     C4 8639  18.577   8.568   0.657  0.1367 -0.0913  0.4350
  786UDC     C5 8640  18.502   8.512   0.535 -0.4917 -0.0139 -0.3981
  786UDC     C6 8641  18.407   8.399   0.556  0.0860 -0.3468  0.3956
  786UDC     C7 8642  18.365   8.330   0.426  0.1216 -0.0521  0.4576
  786UDC     C8 8643  18.316   8.181   0.447 -0.9944 -0.1254  0.6146
  786UDC     C9 8644  18.278   8.115   0.313 -0.4493  0.0619  0.0026
  786UDC    C10 8645  18.396   8.047   0.242 -0.5013 -0.7681 -0.2374
  786UDC    C11 8646  18.484   8.136   0.163  0.4171  0.3328 -0.6231
  787UDC     C1 8647  10.808  11.844  18.402 -0.1470  0.9989 -0.7704
  787UDC     C2 8648  10.669  11.907  18.426 -1.1135 -0.7743  0.2756
  787UDC     C3 8649  10.585  11.857  18.541  0.1462  1.0804 -0.9078
  787UDC     C4 8650  10.438  11.921  18.535  0.5094 -0.7755  0.2504
  787UDC     C5 8651  10.442  12.061  18.465  0.9636 -0.8648 -0.5480
  787UDC     C6 8652  10.306  12.130  18.469 -0.8138 -0.4845 -0.5946
  787UDC     C7 8653  10.313  12.280  18.430 -0.1924 -0.6951  0.7905
  787UDC     C8 8654  10.188  12.356  18.477  1.1426 -0.3269 -0.5026
  787UDC     C9 8655  10.171  12.351  18.630  0.5839 -0.3224  0.3725
  787UDC    C10 8656  10.292  12.417  18.699 -0.1947  0.6165 -0.5441
  787UDC    C11 8657  10.290  12.574  18.704  0.0890  0.9166 -0.0518
  788UDC     C1 8658  17.637  12.754   8.714 -0.6563 -0.6060  0.1718
  788UDC     C2 8659  17.599  12.871   8.817  0.6812 -0.2627  1.5256
  788UDC     C3 8660  17.712  12.959   8.865 -0.8829 -0.5502 -0.2939
  788UDC     C4 8661  17.827  12.885   8.933  0.3844  1.3035  0.2897
  788UDC     C5 8662  17.943  12.975   8.973 -0.0261  0.0925  0.2885
  788UDC     C6 8663  17.929  13.074   9.091  0.0302 -0.1078 -0.4481
  788UDC     C7 8664  18.021  13.193   9.089  0.4020 -0.9364 -0.4339
  788UDC     C8 8665  18.173  13.180   9.079  0.3399  0.5029 -1.1436
  788UDC     C9 8666  18.264  13.275   9.149  0.7732 -0.5442  0.7394
  788UDC    C10 8667  18.186  13.371   9.239 -0.4724  0.7011 -0.1709
  788UDC    C11 8668  18.183  13.333   9.390 -0.2861 -0.4025  0.1417
  789UDC     C1 8669  16.775  15.082  19.100  0.2145 -0.5540  0.4398
  789UDC     C2 8670  16.805  15.228  19.114  0.2715 -0.9555 -0.1610
  789UDC     C3 8671  16.796  15.271  19.268 -0.1065 -0.4130 -0.1444
  789UDC     C4 8672  16.923  15.337  19.323  0.6383 -0.9347  0.1727
  789UDC     C5 8673  17.035  15.232  19.344  0.1651  0.1633  0.5676
  789UDC     C6 8674  17.169  15.297  19.395  0.2401  0.7996  0.5966
  789UDC     C7 8675  17.157  15.370  19.537 -0.0041  0.6071 -0.0391
  789UDC     C8 8676  17.120  15.315  19.674  0.3858  0.5444 -0.9274
  789UDC     C9 8677  17.226  15.358  19.781 -0.1805 -0.1179 -0.1348
  789UDC    C10 8678  17.256  15.507  19.810 -0.7296 -0.2911  0.0125
  789UDC    C11 8679  17.356  15.528  19.919 -0.3170  0.0751  0.8905
  790UDC     C1 8680   2.665   2.520  13.954 -0.4683 -0.0691  0.3253
  790UDC     C2 8681   2.678   2.670  13.926  0.1837  0.4976  0.2469
  790UDC     C3 8682   2.628   2.691  13.785 -0.2922  0.1865  0.9012
  790UDC     C4 8683   2.627   2.845  13.758 -0.0086  0.2327 -0.2878
  790UDC     C5 8684   2.773   2.894  13.747  0.8712 -0.1863 -0.1623
  790UDC     C6 8685   2.811   3.031  13.696 -0.5893 -0.2907 -0.0968
  790UDC     C7 8686   2.782   3.048  13.549 -0.7306  0.6544  0.0582
  790UDC     C8 8687   2.633   3.070  13.520  0.0160 -2.3631 -0.3019
  790UDC     C9 8688   2.588   3.123  13.383 -0.7453 -0.5624 -0.2562
  790UDC    C10 8689   2.540   3.020  13.286  0.5850  0.5170  0.0852
  790UDC    C11 8690   2.509   3.101  13.161  0.6774 -0.1864  0.2016
  791UDC     C1 8691  16.040   5.517  19.218 -0.2009  0.7115  0.9447
  791UDC     C2 8692  16.075   5.388  19.280 -0.7135 -0.7567 -0.0697
  791UDC     C3 8693  16.084   5.295  19.154  0.8588  0.2151 -0.4837
  791UDC     C4 8694  16.212   5.310  19.079 -0.7877  0.2432 -0.3032
  791UDC     C5 8695  16.233   5.206  18.964  1.0486 -0.4180  0.8813
  791UDC     C6 8696  16.363   5.221  18.877 -0.5568 -0.4520 -0.2446
  791UDC     C7 8697  16.488   5.199  18.965  0.7238  0.1675  1.1238
  791UDC     C8 8698  16.610   5.275  18.909 -0.9225 -0.0248  0.2978
  791UDC     C9 8699  16.739   5.246  18.989 -0.4209 -0.0876  0.1367
  791UDC    C10 8700  16.751   5.094  19.002  0.6402  0.3353 -0.3283
  791UDC    C11 8701  16.876   5.041  18.944 -0.3701 -0.4364 -0.5312
  792UDC     C1 8702   3.883   6.175  11.854  0.0706  0.8086  0.5929
  792UDC     C2 8703   3.794   6.220  11.964  0.3764  0.4026 -1.3634
  792UDC     C3 8704   3.710   6.335  11.899  0.1822  0.2811  0.1167
  792UDC     C4 8705   3.631   6.290  11.772  0.5506 -0.2055  0.6204
  792UDC     C5 8706   3.530   6.394  11.708  0.3231 -0.1116  1.1261
  792UDC     C6 8707   3.426   6.430  11.819  0.7192  1.7114  0.0975
  792UDC     C7 8708   3.331   6.545  11.777  0.5348  0.8070  0.7547
  792UDC     C8 8709   3.393   6.629  11.662  0.0603  0.4322 -0.3047
  792UDC     C9 8710   3.326   6.771  11.638  0.5691  0.4353  0.0427
  792UDC    C10 8711   3.335   6.864  11.757  0.2524  0.3963 -0.2407
  792UDC    C11 8712   3.226   6.879  11.867  0.6473 -0.4165 -0.3112
  793UDC     C1 8713   0.348  13.178   7.982  0.8431 -0.8730 -0.4869
  793UDC     C2 8714   0.435  13.107   8.092 -0.6492 -0.2080 -0.0731
  793UDC     C3 8715   0.566  13.032   8.054  0.2401 -0.2099 -0.7350
  793UDC     C4 8716   0.661  13.129   7.976  1.1435  0.3216  0.0365
  793UDC     C5 8717   0.808  13.102   8.009  0.0924 -0.7506  0.2756
  793UDC     C6 8718   0.906  13.163   7.912  0.2784  0.3867 -0.1816
  793UDC     C7 8719   0.904  13.108   7.776  0.1857  0.4791 -0.4661
  793UDC     C8 8720   1.024  13.134   7.679 -0.2607 -0.4291 -0.7013
  793UDC     C9 8721   1.143  13.063   7.731  1.0617  0.2576 -0.3421
  793UDC    C10 8722   1.266  13.060   7.641 -1.6329 -0.2183  0.0512
  793UDC    C11 8723   1.257  13.058   7.488 -0.6616  0.2427  0.3074
  794UDC     C1 8724   4.295  18.695  18.163  0.1242  0.5254  0.5006
  794UDC     C2 8725   4.322  18.550  18.127 -0.5511 -0.2334  1.2067
  794UDC     C3 8726   4.341  18.443  18.238 -0.2623 -0.3554 -0.4083
  794UDC     C4 8727   4.460  18.466  18.328  0.3103 -0.2022 -1.0124
  794UDC     C5 8728   4.466  18.351  18.420 -0.1306  0.0990 -0.5981
  794UDC     C6 8729   4.533  18.399  18.545  1.0108 -0.9332  0.0796
  794UDC     C7 8730   4.514  18.321  18.680 -0.0844  1.1607  0.4829
  794UDC     C8 8731   4.362  18.296  18.713  0.0098  0.3551  1.0763
  794UDC     C9 8732   4.352  18.228  18.852  0.0645  0.3700  1.1309
  794UDC    C10 8733   4.205  18.207  18.895  0.3220 -0.1140  0.2648
  794UDC    C11 8734   4.132  18.340  18.894 -0.1998  0.0326 -0.6588
  795UDC     C1 8735  10.397   9.288  13.917 -0.2438  0.5300  0.2367
  795UDC     C2 8736  10.491   9.204  13.831 -0.2925 -1.0645  0.1859
  795UDC     C3 8737  10.601   9.298  13.780 -0.7736 -0.0236  0.6402
  795UDC     C4 8738  10.598   9.442  13.834 -1.0628 -0.5350 -0.5635
  795UDC     C5 8739  10.736   9.528  13.814  0.8384 -0.8739  0.0204
  795UDC     C6 8740  10.732   9.635  13.922 -0.0771  0.7245 -0.0966
  795UDC     C7 8741  10.879   9.681  13.933 -0.0399  0.2993 -0.4412
  795UDC     C8 8742  10.892   9.783  14.048 -0.0903  0.2345  0.6243
  795UDC     C9 8743  10.835   9.743  14.184 -0.1814  0.3333 -0.4627
  795UDC    C10 8744  10.826   9.871  14.270  0.7427 -0.4514 -0.1502
  795UDC    C11 8745  10.768   9.857  14.410  0.5733 -0.1991 -0.0060
  796UDC     C1 8746   4.605   4.342   7.492  0.5751  0.0734 -0.5636
  796UDC     C2 8747   4.519   4.234   7.417 -0.0837 -0.3704 -0.6322
  796UDC     C3 8748   4.604   4.137   7.346 -0.5857  0.0933 -0.2070
  796UDC     C4 8749   4.630   4.016   7.435 -0.1145  0.5037 -0.1111
  796UDC     C5 8750   4.765   3.956   7.394  0.5767 -0.1253  0.1943
  796UDC     C6 8751   4.811   3.852   7.485 -0.2113  1.4585  0.0949
  796UDC     C7 8752   4.963   3.862   7.525  1.1131 -0.3917  0.3068
  796UDC     C8 8753   5.041   3.729   7.500 -0.8335 -0.4265 -1.5236
  796UDC     C9 8754   5.196   3.746   7.492  0.7348  0.6616  0.8963
  796UDC    C10 8755   5.267   3.718   7.360  0.2631  0.3047  0.8637
  796UDC    C11 8756   5.203   3.625   7.248 -0.5231 -0.0246 -1.8402
  797UDC     C1 8757  16.088  16.907  14.077 -0.9073  0.0711 -0.1412
  797UDC     C2 8758  15.948  16.913  14.018  0.7945  0.9987  0.7092
  797UDC     C3 8759  15.903  17.052  13.965 -0.8499  0.6778 -0.8502
  797UDC     C4 8760  15.757  17.072  13.998  0.2239  0.2650  0.5228
  797UDC     C5 8761  15.720  17.214  13.997  0.6394  0.1222 -1.1058
  797UDC     C6 8762  15.573  17.229  14.016  0.1222  0.6670 -1.4579
  797UDC     C7 8763  15.529  17.373  14.061 -0.1173  1.2417 -0.5966
  797UDC     C8 8764  15.527  17.489  13.958  1.1948 -0.5541  0.3753
  797UDC     C9 8765  15.447  17.610  14.004 -0.4019  0.4581  0.3613
  797UDC    C10 8766  15.418  17.714  13.891 -0.6539 -0.1873 -0.3948
  797UDC    C11 8767  15.360  17.841  13.951  0.1797 -0.6909 -0.3429
  798UDC     C1 8768   8.826   0.383  14.128  0.2189  0.8508  0.9187
  798UDC     C2 8769   8.740   0.442  14.015  0.4503 -0.1876 -0.4939
  798UDC     C3 8770   8.657   0.559  14.064 -0.1795 -0.3524  0.4325
  798UDC     C4 8771   8.534   0.598  13.982  0.1962  0.2566  0.0203
  798UDC     C5 8772   8.477   0.739  14.015 -0.8175  0.0147 -0.2368
  798UDC     C6 8773   8.512   0.855  13.920  0.8879  0.9864 -0.8166
  798UDC     C7 8774   8.648   0.877  13.861  0.5118  0.0999  0.6166
  798UDC     C8 8775   8.672   1.030  13.865  0.1454 -0.7235  0.1213
  798UDC     C9 8776   8.813   1.072  13.911 -0.3101  0.1866  0.0659
  798UDC    C10 8777   8.937   1.024  13.834  0.6004  0.7693 -1.0621
  798UDC    C11 8778   9.067   1.042  13.908 -0.2126  1.0651  0.0640
  799UDC     C1 8779  10.905  12.928  15.485  0.7361  0.1031  0.4355
  799UDC     C2 8780  10.852  12.951  15.626 -0.1603  0.2411  1.6678
  799UDC     C3 8781  10.888  12.849  15.729  0.1965 -0.1936 -0.0535
  799UDC     C4 8782  11.037  12.829  15.751 -0.1798 -0.3108 -0.2697
  799UDC     C5 8783  11.072  12.684  15.798  0.1543  0.4697 -0.4999
  799UDC     C6 8784  11.222  12.654  15.788 -0.3898 -1.4485  0.4421
  799UDC     C7 8785  11.313  12.712  15.897  1.2459 -0.0484  0.2370
  799UDC     C8 8786  11.279  12.636  16.026 -0.8067  0.2996 -0.1684
  799UDC     C9 8787  11.370  12.654  16.147  0.0998 -1.2834  1.0086
  799UDC    C10 8788  11.336  12.569  16.265 -0.2686  1.4473 -1.2161
  799UDC    C11 8789  11.366  12.630  16.403 -0.1041  0.6995  0.7456
  800UDC     C1 8790   3.747   9.888  18.323 -0.0350 -0.3138  0.1407
  800UDC     C2 8791   3.734   9.821  18.181 -0.5325 -0.1709 -0.2288
  800UDC     C3 8792   3.607   9.871  18.099  0.0747 -0.5387 -0.0088
  800UDC     C4 8793   3.619  10.026  18.090 -0.6935 -1.1751  0.1217
  800UDC     C5 8794   3.510  10.090  18.005 -0.6484  0.4006  0.5581
  800UDC     C6 8795   3.559  10.118  17.863  1.3202 -0.2580  0.1865
  800UDC     C7 8796   3.445  10.180  17.785  0.9507 -0.5209 -0.6047
  800UDC     C8 8797   3.318  10.092  17.813  0.0261  0.0920  1.2205
  800UDC     C9 8798   3.207  10.141  17.717  0.5163  1.0767 -0.0634
  800UDC    C10 8799   3.249  10.159  17.574  0.0147 -0.0373  0.0999
  800UDC    C11 8800   3.248  10.026  17.501 -0.3003 -0.1333  0.7009
  801UDC     C1 8801  14.293  16.278   8.745  0.4376 -0.7020  0.4458
  801UDC     C2 8802  14.360  16.364   8.856 -0.1805  0.8343  0.1656
  801UDC     C3 8803  14.266  16.482   8.886 -0.1624  0.5683 -0.2876
  801UDC     C4 8804  14.236  16.576   8.774 -1.5745 -0.2339  0.1917
  801UDC     C5 8805  14.117  16.670   8.824  1.2106  0.5096 -0.9455
  801UDC     C6 8806  14.074  16.781   8.733  0.6620 -0.0116  0.4752
  801UDC     C7 8807  13.939  16.838   8.775  0.0837  0.4414  0.2056
  801UDC     C8 8808  13.869  16.944   8.670 -0.4761  0.7378  0.0256
  801UDC     C9 8809  13.741  17.007   8.729  0.0904  0.5930  1.2359
  801UDC    C10 8810  13.687  17.120   8.647 -0.0251  1.0061  0.6332
  801UDC    C11 8811  13.631  17.240   8.731  0.0785  0.1378 -0.0551
  802UDC     C1 8812  12.548  13.297  19.140  0.6920 -0.1582  0.6722
  802UDC     C2 8813  12.458  13.211  19.228 -0.9931 -0.7034 -0.8210
  802UDC     C3 8814  12.518  13.211  19.368 -0.2149  0.8657 -1.3732
  802UDC     C4 8815  12.492  13.081  19.450 -0.6023 -0.9619  0.3159
  802UDC     C5 8816  12.337  13.046  19.479 -0.0499  1.3269 -0.5266
  802UDC     C6 8817  12.312  12.922  19.576 -0.5894 -1.6089 -0.5915
  802UDC     C7 8818  12.338  12.956  19.725  0.8232 -0.1174 -0.5260
  802UDC     C8 8819  12.215  13.025  19.791 -0.0539 -0.7658  0.2118
  802UDC     C9 8820  12.248  13.162  19.846 -0.2674  0.4253  0.1424
  802UDC    C10 8821  12.119  13.240  19.883 -0.0413  1.2646 -0.4077
  802UDC    C11 8822  12.048  13.160  19.997  0.7356  0.4887  0.6653
  803UDC     C1 8823   3.492   2.802   4.735  0.1300  0.6407  0.4375
  803UDC     C2 8824   3.433   2.684   4.800  1.1441  0.9264  0.4050
  803UDC     C3 8825   3.281   2.662   4.802  0.4012  0.6519  0.4760
  803UDC     C4 8826   3.253   2.553   4.912  0.4314  0.6080 -0.5804
  803UDC     C5 8827   3.315   2.412   4.907 -1.0053 -0.2213  0.0182
  803UDC     C6 8828   3.264   2.315   5.018  0.3579  0.2502  0.8954
  803UDC     C7 8829   3.293   2.165   5.010 -0.8343 -0.5589  0.4443
  803UDC     C8 8830   3.439   2.123   5.009 -0.6219  0.7288 -0.9448
  803UDC     C9 8831   3.536   2.172   5.123 -0.7378 -0.6197  0.3602
  803UDC    C10 8832   3.652   2.082   5.151  0.9664 -0.0043  0.6211
  803UDC    C11 8833   3.577   1.955   5.190  0.2440 -0.6665 -0.0601
  804UDC     C1 8834  13.546  19.801   5.640 -0.2981 -0.5284  0.8288
  804UDC     C2 8835  13.524  19.844   5.494  0.3213 -0.3710 -0.6152
  804UDC     C3 8836  13.637  19.791   5.411  0.7730  0.4935  0.5570
  804UDC     C4 8837  13.626  19.797   5.258 -0.2782  0.4710 -0.4711
  804UDC     C5 8838  13.760  19.820   5.178  0.3609 -0.5251  0.6614
  804UDC     C6 8839  13.745  19.791   5.031 -0.0949  0.1071 -0.2845
  804UDC     C7 8840  13.881  19.815   4.946  0.1514  0.4254 -0.8854
  804UDC     C8 8841  13.893  19.751   4.807 -0.3894  1.0063 -0.0912
  804UDC     C9 8842  13.792  19.803   4.708 -0.1440  0.1164  0.2635
  804UDC    C10 8843  13.842  19.771   4.562 -0.3644 -0.2293  0.1529
  804UDC    C11 8844  13.870  19.623   4.567 -0.1798  0.8637 -0.0959
  805UDC     C1 8845  10.004  14.749  19.318 -0.3451 -0.5979  0.2917
  805UDC     C2 8846   9.959  14.883  19.254  0.1971  1.6407 -0.1118
  805UDC     C3 8847   9.984  15.004  19.342  0.9619  0.1635  1.0460
  805UDC     C4 8848  10.001  15.131  19.261  0.5643 -0.3089  0.0556
  805UDC     C5 8849  10.012  15.259  19.341 -0.1062  0.1562 -0.5874
  805UDC     C6 8850   9.869  15.309  19.323  0.6787  0.4458  0.0993
  805UDC     C7 8851   9.859  15.460  19.310 -0.9495  0.6667  1.1231
  805UDC     C8 8852   9.719  15.505  19.345 -0.6552 -0.2616 -0.2065
  805UDC     C9 8853   9.726  15.613  19.449  0.4997  0.1015 -1.0167
  805UDC    C10 8854   9.732  15.760  19.399 -0.5675  0.2909  0.3427
  805UDC    C11 8855   9.755  15.847  19.524  1.0047  0.2410 -0.2005
  806UDC     C1 8856  12.561   7.198  16.141 -0.1710 -0.3586 -0.0410
  806UDC     C2 8857  12.457   7.081  16.125  0.3558  1.2572  0.1318
  806UDC     C3 8858  12.338   7.097  16.025 -0.7485 -0.7970  0.0025
  806UDC     C4 8859  12.247   6.978  16.016 -0.3206 -0.3815  0.3521
  806UDC     C5 8860  12.123   7.005  15.936 -0.3999  0.7710 -0.4933
  806UDC     C6 8861  12.017   6.891  15.950  0.4265  1.1982 -0.4841
  806UDC     C7 8862  11.901   6.913  15.855  0.4035 -0.8139  0.7598
  806UDC     C8 8863  11.954   6.917  15.707 -0.3831 -0.6180  0.4488
  806UDC     C9 8864  11.842   6.936  15.604  1.0388  0.6897 -0.5206
  806UDC    C10 8865  11.784   6.797  15.559  0.2659 -1.0900 -0.5500
  806UDC    C11 8866  11.687   6.789  15.432 -0.3147 -1.8577  0.9510
  807UDC     C1 8867  13.990  12.573  19.379  0.1313 -0.7795  0.1402
  807UDC     C2 8868  13.938  12.498  19.254  0.9221  0.0011  0.2598
  807UDC     C3 8869  13.952  12.343  19.266  0.2432  0.4039 -0.8398
  807UDC     C4 8870  13.891  12.271  19.147 -0.7342  0.8571 -0.4497
  807UDC     C5 8871  13.993  12.260  19.028  0.5099 -0.0255  0.3858
  807UDC     C6 8872  13.969  12.197  18.885 -0.2326 -0.2141 -0.2904
  807UDC     C7 8873  13.817  12.205  18.843 -1.2501  0.3364 -0.0839
  807UDC     C8 8874  13.806  12.175  18.694 -0.3761  1.3218  0.7735
  807UDC     C9 8875  13.915  12.069  18.675  1.0546  1.0625  0.2171
  807UDC    C10 8876  13.880  11.958  18.579  1.4022 -0.8896 -0.3407
  807UDC    C11 8877  13.791  11.847  18.633  0.0104 -0.9207 -0.0237
  808UDC     C1 8878   4.506   7.640  10.891  0.0708  0.1532 -0.1503
  808UDC     C2 8879   4.375   7.584  10.836 -0.1798 -0.3047  0.8611
  808UDC     C3 8880   4.247   7.647  10.881  0.4226 -0.9998  0.3384
  808UDC     C4 8881   4.207   7.644  11.025  0.1516  0.2936 -0.1137
  808UDC     C5 8882   4.195   7.495  11.091  0.1043 -1.1411 -0.0222
  808UDC     C6 8883   4.228   7.495  11.247 -0.8404 -0.5115  0.8675
  808UDC     C7 8884   4.231   7.356  11.308  0.8911 -0.6860 -0.6829
  808UDC     C8 8885   4.289   7.387  11.451 -0.5827  0.3052 -1.0722
  808UDC     C9 8886   4.351   7.257  11.502  0.4834 -0.1358  0.0191
  808UDC    C10 8887   4.369   7.265  11.656  0.2074  0.0208 -0.5378
  808UDC    C11 8888   4.425   7.400  11.715  0.1421  0.0988 -0.7802
  809UDC     C1 8889  19.480   8.594  10.722 -0.0519 -1.1368  1.5539
  809UDC     C2 8890  19.575   8.472  10.739  0.0252 -0.5143 -0.6199
  809UDC     C3 8891  19.676   8.521  10.833  0.0750  0.3800 -0.2142
  809UDC     C4 8892  19.604   8.584  10.958 -0.0350  0.1014 -0.2741
  809UDC     C5 8893  19.550   8.484  11.071  0.1115  0.6440 -0.1824
  809UDC     C6 8894  19.428   8.550  11.144 -0.1090  0.3330 -0.4238
  809UDC     C7 8895  19.366   8.465  11.257  0.6826  0.0155 -0.1079
  809UDC     C8 8896  19.301   8.551  11.364 -0.1558 -0.8542  0.7844
  809UDC     C9 8897  19.322   8.475  11.497  0.1234 -0.3253 -0.0134
  809UDC    C10 8898  19.227   8.353  11.514  0.7134  0.3267 -0.1107
  809UDC    C11 8899  19.087   8.407  11.539 -0.7817  0.9125  0.4400
  810UDC     C1 8900  17.403  11.932  12.799  1.4188 -1.4773  0.9630
  810UDC     C2 8901  17.547  11.880  12.805 -0.3479  0.0251 -0.3960
  810UDC     C3 8902  17.600  11.801  12.930 -0.1933  1.0207  0.1222
  810UDC     C4 8903  17.734  11.725  12.908 -0.2799  0.5890  0.4019
  810UDC     C5 8904  17.703  11.614  12.804 -0.2627  0.0996 -0.1850
  810UDC     C6 8905  17.631  11.478  12.835  0.2362 -0.6506 -0.5188
  810UDC     C7 8906  17.539  11.444  12.717  0.1107 -0.3995 -0.3359
  810UDC     C8 8907  17.604  11.402  12.582 -0.6087  0.4901 -0.3166
  810UDC     C9 8908  17.504  11.417  12.471 -1.0201 -0.0637 -0.1300
  810UDC    C10 8909  17.567  11.362  12.343  0.8826  0.7267 -1.0792
  810UDC    C11 8910  17.716  11.406  12.325 -0.4731  0.0301  0.4671
  811UDC     C1 8911   2.650  13.210  17.565  0.3956 -0.8426  0.8046
  811UDC     C2 8912   2.713  13.341  17.498 -0.1830 -0.2204 -0.2446
  811UDC     C3 8913   2.729  13.445  17.605 -0.5155 -0.7966 -0.2575
  811UDC     C4 8914   2.618  13.544  17.637 -0.0900  0.9357  0.6418
  811UDC     C5 8915   2.654  13.616  17.768 -0.5701  0.5354  0.0948
  811UDC     C6 8916   2.554  13.731  17.802 -0.9845  0.2482 -1.2612
  811UDC     C7 8917   2.523  13.847  17.703 -0.6941 -0.2187 -0.2122
  811UDC     C8 8918   2.482  13.974  17.787 -0.4598  0.5190 -0.0495
  811UDC     C9 8919   2.582  14.031  17.883 -0.5403  0.5838 -0.5502
  811UDC    C10 8920   2.723  14.062  17.832 -0.7794  0.3115  0.6162
  811UDC    C11 8921   2.812  14.159  17.909 -0.1472 -0.0674 -0.4509
  812UDC     C1 8922  16.725   5.586   7.472  0.0195 -0.3003  0.1180
  812UDC     C2 8923  16.581   5.560   7.461  0.7743  0.3618 -1.5755
  812UDC     C3 8924  16.526   5.536   7.607  0.0405  0.2737 -0.2647
  812UDC     C4 8925  16.373   5.546   7.608 -0.1686  0.8630 -0.3312
  812UDC     C5 8926  16.300   5.679   7.617 -0.3001 -1.3447  0.3204
  812UDC     C6 8927  16.192   5.681   7.725  1.3889  0.4902  0.2471
  812UDC     C7 8928  16.137   5.822   7.705 -0.9954 -0.6476 -0.6691
  812UDC     C8 8929  16.067   5.914   7.810  0.6549 -0.0292 -0.2712
  812UDC     C9 8930  16.003   6.052   7.770  0.0619  1.0767 -0.2254
  812UDC    C10 8931  15.904   6.101   7.883 -1.2565 -0.2810 -0.0010
  812UDC    C11 8932  15.853   6.241   7.850 -0.2079  0.0673 -0.1067
  813UDC     C1 8933  16.303   3.477  14.322  1.1582  0.1030  0.5236
  813UDC     C2 8934  16.265   3.325  14.309  1.0712 -0.6435  0.1760
  813UDC     C3 8935  16.276   3.230  14.432 -0.2452  0.4512  0.7197
  813UDC     C4 8936  16.205   3.093  14.409  0.7627  0.7026  0.2398
  813UDC     C5 8937  16.248   2.970  14.495  0.4037 -0.7637 -1.0171
  813UDC     C6 8938  16.259   3.000  14.646 -0.3009 -0.1472  0.4533
  813UDC     C7 8939  16.312   2.870  14.697  0.1518 -0.1836 -0.2059
  813UDC     C8 8940  16.330   2.889  14.848 -0.7646 -0.2851  0.2914
  813UDC     C9 8941  16.425   2.783  14.902 -0.2121  2.0992  0.1086
  813UDC    C10 8942  16.403   2.634  14.857  0.1720  0.5837  0.3660
  813UDC    C11 8943  16.518   2.554  14.922  0.7457  1.5119  0.9115
  814UDC     C1 8944   2.965  13.847   9.872  0.4632 -0.7740  0.2880
  814UDC     C2 8945   2.852  13.745   9.849  0.3219 -0.3369  0.8499
  814UDC     C3 8946   2.871  13.601   9.913  1.4563 -0.5396  0.2041
  814UDC     C4 8947   2.826  13.499   9.811 -0.3995 -0.7184 -1.3542
  814UDC     C5 8948   2.905  13.375   9.851  0.4875  0.3636  0.6059
  814UDC     C6 8949   2.837  13.250   9.801  0.1964 -1.0948 -0.1494
  814UDC     C7 8950   2.938  13.139   9.813 -0.4032  1.1482 -0.0431
  814UDC     C8 8951   3.082  13.185   9.856  0.8367  0.2898 -0.1106
  814UDC     C9 8952   3.171  13.057   9.868 -0.2874  0.1705 -0.6696
  814UDC    C10 8953   3.100  12.948   9.951 -0.0922  0.5994  0.1034
  814UDC    C11 8954   3.180  12.820   9.952  0.1614 -0.1146  0.1187
  815UDC     C1 8955  16.550   4.290   8.685  0.4769 -0.3333  1.4524
  815UDC     C2 8956  16.489   4.260   8.821 -0.6940  0.3036 -0.5587
  815UDC     C3 8957  16.343   4.209   8.813 -0.4159 -0.1644 -1.3155
  815UDC     C4 8958  16.332   4.054   8.788  0.7245 -0.5692 -1.3380
  815UDC     C5 8959  16.340   3.966   8.913  0.8433  0.1794  0.1365
  815UDC     C6 8960  16.340   3.813   8.889  0.1757  0.0550 -0.4751
  815UDC     C7 8961  16.467   3.786   8.810 -1.6074 -0.3525  0.1381
  815UDC     C8 8962  16.606   3.772   8.884  0.8577  0.0597  0.8306
  815UDC     C9 8963  16.716   3.772   8.774  0.5444  0.5557 -0.5627
  815UDC    C10 8964  16.766   3.633   8.726  0.7010 -0.5954  0.4322
  815UDC    C11 8965  16.844   3.559   8.831 -1.1725 -0.4221 -1.0020
  816UDC     C1 8966   4.405   7.166   8.187  0.2649  0.3675  0.3177
  816UDC     C2 8967   4.396   7.057   8.071  0.0028 -0.8662  0.0457
  816UDC     C3 8968   4.521   7.050   7.982 -0.0604 -0.6225  0.1499
  816UDC     C4 8969   4.532   6.908   7.920  0.5202  0.4888  0.1676
  816UDC     C5 8970   4.649   6.908   7.828 -0.3171  0.7617  0.8658
  816UDC     C6 8971   4.622   6.972   7.692 -0.3262 -0.4914  0.0028
  816UDC     C7 8972   4.738   6.990   7.593 -0.9494  0.3790  0.3948
  816UDC     C8 8973   4.812   6.864   7.553  0.3441  0.6150 -1.6100
  816UDC     C9 8974   4.723   6.799   7.438  0.0976 -0.0585 -0.2913
  816UDC    C10 8975   4.768   6.662   7.397  0.2811  0.3251  0.4593
  816UDC    C11 8976   4.679   6.600   7.291 -0.9490  0.1579 -0.3900
  817UDC     C1 8977  14.433   4.862   4.025  0.0477  0.6100  0.4682
  817UDC     C2 8978  14.354   4.874   3.896  0.5304  0.3377  1.3334
  817UDC     C3 8979  14.430   4.796   3.791 -0.7068 -0.0490  0.0341
  817UDC     C4 8980  14.363   4.763   3.658  0.4742  0.4210  1.1684
  817UDC     C5 8981  14.336   4.872   3.555  1.1155  0.4712 -0.1277
  817UDC     C6 8982  14.313   4.832   3.412  0.4532  0.8633 -0.1073
  817UDC     C7 8983  14.163   4.804   3.381  0.1712  0.1702  0.7933
  817UDC     C8 8984  14.115   4.815   3.233  1.3178  0.1011  0.2698
  817UDC     C9 8985  13.961   4.798   3.205  0.7140 -0.0982 -0.0713
  817UDC    C10 8986  13.924   4.771   3.061  0.2044  0.2843 -0.2849
  817UDC    C11 8987  13.766   4.776   3.064  0.2209 -0.3529  0.0406
  818UDC     C1 8988   4.250   9.866   2.481  0.1166 -0.0820 -0.0772
  818UDC     C2 8989   4.191   9.857   2.626  0.5042 -0.3209  0.7628
  818UDC     C3 8990   4.049   9.923   2.630  0.7056 -0.0343 -0.1582
  818UDC     C4 8991   4.023   9.930   2.780 -0.2338  0.7187  0.4808
  818UDC     C5 8992   3.879   9.947   2.827 -0.2837 -0.4933 -1.0529
  818UDC     C6 8993   3.805  10.080   2.859  0.2100 -1.2328 -0.0071
  818UDC     C7 8994   3.815  10.106   3.012  0.6669  0.0389  1.3225
  818UDC     C8 8995   3.753   9.990   3.092  0.6048 -0.2485  1.0406
  818UDC     C9 8996   3.600  10.029   3.099  0.3010 -0.2172 -0.6654
  818UDC    C10 8997   3.517   9.979   3.222 -0.2595  0.5727  1.1970
  818UDC    C11 8998   3.593  10.030   3.346 -0.2631 -0.2083  0.6265
  819UDC     C1 8999   7.867  15.384  14.796  0.3262  0.5934 -0.9736
  819UDC     C2 9000   7.966  15.365  14.677  0.2049  0.1530 -0.3390
  819UDC     C3 9001   8.111  15.357  14.724 -0.3527 -0.7158 -0.1314
  819UDC     C4 9002   8.161  15.228  14.787  0.5882 -0.3582  0.2501
  819UDC     C5 9003   8.318  15.234  14.806  0.0844  0.4570  0.4267
  819UDC     C6 9004   8.329  15.298  14.942 -0.2672 -0.7322 -0.2153
  819UDC     C7 9005   8.467  15.267  15.004  1.2528  1.1850 -0.5266
  819UDC     C8 9006   8.579  15.364  14.961 -0.6444  0.7789  0.3425
  819UDC     C9 9007   8.597  15.516  14.964  0.4341 -0.2248 -0.3040
  819UDC    C10 9008   8.714  15.572  14.881  0.4978  1.0854  1.1505
  819UDC    C11 9009   8.768  15.709  14.926 -0.4241  0.6669 -0.5211
  820UDC     C1 9010   4.278   9.658   0.486 -0.4485  0.2547  0.3419
  820UDC     C2 9011   4.316   9.803   0.471  0.2993  0.7638  0.4529
  820UDC     C3 9012   4.260   9.879   0.582  0.4895 -0.5200 -0.7121
  820UDC     C4 9013   4.304  10.022   0.599  0.5911  0.6673 -0.0195
  820UDC     C5 9014   4.249  10.112   0.722 -1.0025  0.2450  0.0747
  820UDC     C6 9015   4.300  10.262   0.727  0.7917 -0.6472 -0.0203
  820UDC     C7 9016   4.263  10.327   0.858 -0.1314  0.4481  0.0710
  820UDC     C8 9017   4.395  10.371   0.919  0.2824 -0.3511 -0.2377
  820UDC     C9 9018   4.448  10.255   0.998 -0.9214  0.3954  0.5977
  820UDC    C10 9019   4.568  10.289   1.089  0.1633  0.0441  0.0467
  820UDC    C11 9020   4.684  10.352   1.007 -0.0819 -0.0734 -0.9514
  821UDC     C1 9021   0.586  15.412  18.087 -0.4586 -0.3235 -1.2385
  821UDC     C2 9022   0.634  15.305  18.194 -0.5907  0.3733  0.2287
  821UDC     C3 9023   0.535  15.182  18.219  0.0044  0.5208  0.4529
  821UDC     C4 9024   0.536  15.079  18.106  0.0655  1.1386 -0.0342
  821UDC     C5 9025   0.425  14.989  18.141 -0.0413  0.0530 -0.4734
  821UDC     C6 9026   0.281  15.046  18.151  0.5260 -0.4557 -0.1496
  821UDC     C7 9027   0.188  14.948  18.223  0.8292  0.1506  0.9953
  821UDC     C8 9028   0.143  14.829  18.138 -0.0792  0.0142  1.1639
  821UDC     C9 9029   0.061  14.725  18.215 -0.2905  0.2185  0.2169
  821UDC    C10 9030   0.074  14.584  18.149  1.1894 -0.3791  0.7122
  821UDC    C11 9031  -0.031  14.579  18.025  0.7962  0.3280  0.0653
  822UDC     C1 9032  10.933   6.879  13.462  0.0998 -1.6949 -0.4023
  822UDC     C2 9033  10.860   6.902  13.332  0.0294  0.2140 -0.2255
  822UDC     C3 9034  10.760   7.018  13.327  0.0882  0.2608 -1.1991
  822UDC     C4 9035  10.633   6.968  13.395  0.5478 -0.8017 -1.1760
  822UDC     C5 9036  10.597   7.012  13.537 -0.0489 -0.5475  0.4262
  822UDC     C6 9037  10.458   6.957  13.586 -0.2870 -0.2993 -0.3247
  822UDC     C7 9038  10.453   6.804  13.596 -0.0687  1.5999 -0.6428
  822UDC     C8 9039  10.345   6.760  13.702  0.1287 -0.2484 -0.4812
  822UDC     C9 9040  10.395   6.823  13.833  0.2020  0.0122 -0.0846
  822UDC    C10 9041  10.285   6.820  13.941  0.0865 -0.8429  0.4692
  822UDC    C11 9042  10.236   6.692  14.008  0.3854  0.2552  0.1880
  823UDC     C1 9043   3.676  17.508  16.261  0.6783  0.4197  0.1982
  823UDC     C2 9044   3.830  17.486  16.236  0.2449  0.5110  0.1634
  823UDC     C3 9045   3.879  17.410  16.109 -0.1373  0.4388  0.9310
  823UDC     C4 9046   3.819  17.453  15.980 -0.4683  0.0936  0.0445
  823UDC     C5 9047   3.841  17.601  15.937 -0.7158  1.0249  0.9501
  823UDC     C6 9048   3.991  17.656  15.929  1.3341  0.0514  0.2321
  823UDC     C7 9049   4.011  17.807  15.915 -0.2853 -0.2811 -0.2051
  823UDC     C8 9050   4.159  17.834  15.890  0.2025 -0.4089 -0.1401
  823UDC     C9 9051   4.206  17.796  15.752  0.4607 -0.2611 -0.6216
  823UDC    C10 9052   4.355  17.795  15.729  0.6944 -0.4543  0.2273
  823UDC    C11 9053   4.367  17.760  15.584  1.2739 -0.1448 -0.3227
  824UDC     C1 9054  15.706   4.886   2.226  0.3477  0.5472 -0.1903
  824UDC     C2 9055  15.632   4.986   2.312  0.6025 -0.0621 -0.0318
  824UDC     C3 9056  15.482   4.993   2.271  0.3772 -0.5712 -0.1212
  824UDC     C4 9057  15.393   5.021   2.397 -0.0517  0.6320  0.0485
  824UDC     C5 9058  15.366   4.899   2.491 -0.3443 -1.2505  0.3877
  824UDC     C6 9059  15.314   4.950   2.630 -1.0586  0.5319  0.4097
  824UDC     C7 9060  15.363   5.096   2.668 -0.2315 -0.1803  0.0958
  824UDC     C8 9061  15.279   5.176   2.767 -0.2707 -0.5140  0.0856
  824UDC     C9 9062  15.329   5.305   2.839  1.1998  0.6031  0.0168
  824UDC    C10 9063  15.211   5.372   2.922  0.6368 -0.9562 -0.5750
  824UDC    C11 9064  15.071   5.326   2.885 -0.3957  0.1602  0.4246
  825UDC     C1 9065   6.942  15.574   3.043  0.8263  0.0110  0.4865
  825UDC     C2 9066   6.927  15.509   2.904 -0.3992  0.2600  0.7077
  825UDC     C3 9067   7.048  15.411   2.894 -0.8369 -0.3200 -0.3322
  825UDC     C4 9068   7.068  15.378   2.749 -0.4808 -0.1200  0.6516
  825UDC     C5 9069   7.201  15.326   2.702  0.3972 -0.2516 -0.4268
  825UDC     C6 9070   7.180  15.185   2.745  0.6079  0.1734 -0.5314
  825UDC     C7 9071   7.293  15.100   2.691  0.2712 -0.7438 -0.2870
  825UDC     C8 9072   7.249  14.952   2.713  1.2318  0.6789 -0.0858
  825UDC     C9 9073   7.370  14.856   2.760 -0.1756 -0.0065 -0.1664
  825UDC    C10 9074   7.475  14.831   2.660  1.2382 -0.7897 -0.0162
  825UDC    C11 9075   7.611  14.902   2.666 -0.3952  0.0615 -0.1334
  826UDC     C1 9076   4.407  11.700   9.534 -0.9283  0.4756 -1.4728
  826UDC     C2 9077   4.358  11.833   9.613  1.2348  0.5465  0.1162
  826UDC     C3 9078   4.242  11.803   9.712 -0.7354  0.1529 -0.5930
  826UDC     C4 9079   4.146  11.918   9.742  0.1782  0.6665 -0.1047
  826UDC     C5 9080   4.035  11.889   9.844  0.0250 -0.0642 -0.3507
  826UDC     C6 9081   3.900  11.960   9.847 -1.8336 -0.5676  0.0365
  826UDC     C7 9082   3.846  11.975   9.706 -0.8224 -0.7374 -0.7361
  826UDC     C8 9083   3.705  12.015   9.696  0.3634 -0.3732 -0.4534
  826UDC     C9 9084   3.639  12.037   9.559  0.1864  1.6035  0.7892
  826UDC    C10 9085   3.489  12.073   9.571  0.7211 -1.6026 -0.9818
  826UDC    C11 9086   3.420  12.086   9.429  0.1612 -0.1203 -0.9509
  827UDC     C1 9087  13.625   3.429  18.082 -0.3173 -0.3998  0.0949
  827UDC     C2 9088  13.576   3.432  17.939 -0.3133 -0.2267  0.6458
  827UDC     C3 9089  13.689   3.417  17.834  0.1795 -0.2172  0.3693
  827UDC     C4 9090  13.646   3.354  17.694  0.2425  0.9811 -0.4781
  827UDC     C5 9091  13.671   3.203  17.681 -0.4675  0.2312 -0.0211
  827UDC     C6 9092  13.659   3.132  17.546 -0.3513 -0.4735  1.2995
  827UDC     C7 9093  13.707   2.990  17.546 -0.0574 -0.6043  0.4179
  827UDC     C8 9094  13.663   2.915  17.664 -1.3806 -0.7196 -0.8541
  827UDC     C9 9095  13.690   2.763  17.673 -0.6577  0.5273 -0.7540
  827UDC    C10 9096  13.665   2.692  17.815 -0.3534 -1.7143  0.1908
  827UDC    C11 9097  13.746   2.773  17.914  0.1116 -0.4891 -0.2224
  828UDC     C1 9098   4.407   9.528   2.353  1.6948  0.6051  0.7301
  828UDC     C2 9099   4.394   9.603   2.222  0.5715 -0.7999 -0.2879
  828UDC     C3 9100   4.443   9.512   2.110 -0.8005  0.4333  0.0515
  828UDC     C4 9101   4.413   9.551   1.965  0.4976 -0.7804  0.6018
  828UDC     C5 9102   4.482   9.469   1.854  0.1355 -0.1889 -0.2109
  828UDC     C6 9103   4.639   9.469   1.874  0.2000 -0.3962 -0.1465
  828UDC     C7 9104   4.725   9.418   1.763  0.2705  0.2162  1.0188
  828UDC     C8 9105   4.712   9.265   1.735  0.8553  0.4155 -0.5625
  828UDC     C9 9106   4.794   9.203   1.621 -0.3257  0.4735 -0.1820
  828UDC    C10 9107   4.781   9.284   1.492  0.9721 -0.4710  0.5302
  828UDC    C11 9108   4.650   9.258   1.431 -0.2080 -0.1354 -0.0333
  829UDC     C1 9109  12.560   2.322  17.595  0.2464 -0.6617  1.1948
  829UDC     C2 9110  12.710   2.333  17.603 -0.0056 -0.0220  0.8149
  829UDC     C3 9111  12.752   2.198  17.671  0.2195  0.7162 -0.2911
  829UDC     C4 9112  12.910   2.185  17.641 -0.3952  0.0410 -0.7027
  829UDC     C5 9113  13.007   2.266  17.739  0.6580 -0.0195  0.6910
  829UDC     C6 9114  12.957   2.222  17.875 -0.2546 -0.4567 -0.1755
  829UDC     C7 9115  12.994   2.295  18.000  0.1622  0.0605  0.0338
  829UDC     C8 9116  12.903   2.241  18.110  0.4723 -0.4433  0.0097
  829UDC     C9 9117  12.971   2.116  18.163 -0.6734  0.8113  0.1100
  829UDC    C10 9118  12.900   2.053  18.289 -0.2474 -0.2022 -0.0112
  829UDC    C11 9119  12.969   1.939  18.363  0.1685 -0.1606  0.2840
  830UDC     C1 9120  16.901  18.875  18.914 -0.6832 -0.4975 -0.7903
  830UDC     C2 9121  16.941  18.734  18.878  0.1377 -0.0095  0.8779
  830UDC     C3 9122  17.038  18.665  18.971  0.0768  0.6772  0.8782
  830UDC     C4 9123  17.146  18.580  18.902 -0.0206 -0.3594 -0.1726
  830UDC     C5 9124  17.181  18.653  18.772  0.6940 -0.3924 -0.8475
  830UDC     C6 9125  17.290  18.581  18.682  0.0953  0.4485 -0.0683
  830UDC     C7 9126  17.251  18.432  18.641 -1.7457 -1.2195  0.0776
  830UDC     C8 9127  17.284  18.362  18.509  0.3445 -0.3090 -0.5991
  830UDC     C9 9128  17.237  18.438  18.387  0.5332  0.0954 -1.3831
  830UDC    C10 9129  17.286  18.378  18.257  0.0730 -0.6463 -0.0508
  830UDC    C11 9130  17.211  18.424  18.131 -0.9150 -0.5985  0.7283
  831UDC     C1 9131  15.798   1.358  14.073  0.3022  0.0267 -0.4128
  831UDC     C2 9132  15.887   1.460  14.004 -0.1604  1.5746 -0.3412
  831UDC     C3 9133  15.813   1.528  13.890 -0.3726  0.3655 -0.4099
  831UDC     C4 9134  15.910   1.597  13.786  0.9901 -1.2092  0.0747
  831UDC     C5 9135  15.847   1.713  13.707  1.6183 -1.1767  1.0929
  831UDC     C6 9136  15.720   1.685  13.633 -0.0098  0.0098 -0.8062
  831UDC     C7 9137  15.623   1.803  13.623  0.4354  0.3657 -0.2761
  831UDC     C8 9138  15.615   1.894  13.746 -0.7849  0.6831 -0.0077
  831UDC     C9 9139  15.540   1.824  13.860 -0.0682 -0.0160  1.8616
  831UDC    C10 9140  15.547   1.872  14.001 -0.6970  0.4633 -0.1142
  831UDC    C11 9141  15.644   1.792  14.079  0.1559 -0.0079 -0.5835
  832UDC     C1 9142   2.796  10.865  11.823 -0.3526 -0.1298  0.4946
  832UDC     C2 9143   2.948  10.850  11.806 -0.6703  0.2389 -0.2586
  832UDC     C3 9144   2.989  10.720  11.883 -0.0945 -0.0693  1.1874
  832UDC     C4 9145   3.135  10.688  11.863  1.0574  0.3262  0.1906
  832UDC     C5 9146   3.241  10.740  11.968  0.7835  0.8882  0.1600
  832UDC     C6 9147   3.230  10.678  12.111  0.4667  0.0861 -0.9352
  832UDC     C7 9148   3.258  10.533  12.101 -0.6244 -0.3919 -0.2423
  832UDC     C8 9149   3.165  10.431  12.169  0.8771 -0.6224 -0.7335
  832UDC     C9 9150   3.203  10.283  12.163  0.2323 -0.5842 -0.2996
  832UDC    C10 9151   3.140  10.200  12.283  0.4814 -0.5363  0.8334
  832UDC    C11 9152   2.991  10.198  12.264  0.7454 -0.5652 -0.3603
  833UDC     C1 9153  19.879  13.248  17.085 -0.4009  0.2063  0.2539
  833UDC     C2 9154  19.877  13.370  17.182  0.8213  0.4474 -0.0574
  833UDC     C3 9155  19.908  13.512  17.136 -0.7489 -0.1778 -0.2106
  833UDC     C4 9156  19.786  13.569  17.069 -0.0544 -0.0217  0.2367
  833UDC     C5 9157  19.671  13.629  17.156  0.0032  0.7241 -0.2582
  833UDC     C6 9158  19.592  13.545  17.271 -0.3655  0.9975 -0.6482
  833UDC     C7 9159  19.518  13.641  17.365 -0.0156 -0.0603  0.5477
  833UDC     C8 9160  19.448  13.606  17.495 -0.0581 -0.1908 -0.2074
  833UDC     C9 9161  19.374  13.717  17.576  0.0759 -0.0246  0.7370
  833UDC    C10 9162  19.285  13.806  17.487 -0.4174  0.5179 -0.6061
  833UDC    C11 9163  19.182  13.872  17.589  0.1497  0.3059 -0.5926
  834UDC     C1 9164   6.775   5.399   8.087  0.4934 -0.2398  0.3935
  834UDC     C2 9165   6.688   5.513   8.152 -0.5948 -0.3791  0.3460
  834UDC     C3 9166   6.602   5.584   8.049  1.0750  1.2306  0.1443
  834UDC     C4 9167   6.683   5.668   7.956  0.1717  0.1684  0.6933
  834UDC     C5 9168   6.593   5.773   7.880  0.8533 -0.6474 -0.2284
  834UDC     C6 9169   6.519   5.865   7.983 -1.4725  0.0276 -0.5179
  834UDC     C7 9170   6.485   6.006   7.945 -0.2021  0.8832  1.1332
  834UDC     C8 9171   6.392   6.067   8.045 -0.2539  1.1193  0.1883
  834UDC     C9 9172   6.403   6.221   8.054 -0.7253 -0.1934 -0.6028
  834UDC    C10 9173   6.289   6.292   8.125  0.1818  0.5237 -1.0333
  834UDC    C11 9174   6.148   6.286   8.069  0.9174  0.5495  1.3648
  835UDC     C1 9175  19.861  19.100  19.560  0.4772 -0.0221  1.4905
  835UDC     C2 9176  19.912  19.239  19.583 -0.1386  0.3178  0.1997
  835UDC     C3 9177  20.065  19.257  19.557  0.9049 -1.1097 -0.0735
  835UDC     C4 9178  20.080  19.412  19.537  0.4197 -0.3083  0.2102
  835UDC     C5 9179  19.987  19.505  19.621 -0.1145 -0.3441 -0.5242
  835UDC     C6 9180  20.025  19.658  19.617  0.6417  0.7884  0.6231
  835UDC     C7 9181  19.973  19.728  19.751 -0.1761  0.5801 -0.3646
  835UDC     C8 9182  19.814  19.719  19.785 -0.2329 -0.5013  1.0201
  835UDC     C9 9183  19.745  19.822  19.685 -0.6244  0.8136  0.9531
  835UDC    C10 9184  19.597  19.836  19.689 -0.4453 -0.7888 -0.1078
  835UDC    C11 9185  19.549  19.831  19.830  0.3790 -0.4747  0.0548
  836UDC     C1 9186   7.768   4.158  13.347  0.4582 -0.4425 -0.4418
  836UDC     C2 9187   7.824   4.038  13.271 -0.0768 -0.4052 -0.1281
  836UDC     C3 9188   7.875   3.928  13.361 -1.0019 -0.1545 -0.5247
  836UDC     C4 9189   8.019   3.964  13.417 -0.5012  0.0336  0.3314
  836UDC     C5 9190   8.130   3.973  13.304  0.2706 -0.8102  0.0783
  836UDC     C6 9191   8.157   4.115  13.248  0.3267  0.1175 -0.6802
  836UDC     C7 9192   8.125   4.149  13.103  1.1208 -0.2484 -0.7334
  836UDC     C8 9193   8.157   4.034  13.004 -0.2041 -0.5917  1.0754
  836UDC     C9 9194   8.274   4.058  12.898  0.9033  0.6800  0.5143
  836UDC    C10 9195   8.356   3.936  12.839  0.8648 -0.5998 -0.1478
  836UDC    C11 9196   8.453   3.889  12.945  0.3673 -0.0734 -0.2419
  837UDC     C1 9197  12.501  12.727  12.097 -0.3432  0.5405  0.9912
  837UDC     C2 9198  12.521  12.729  12.241 -0.1280  0.1451 -1.5852
  837UDC     C3 9199  12.643  12.810  12.277  0.2806 -0.2222  0.3208
  837UDC     C4 9200  12.712  12.758  12.406 -0.0757 -0.2808  0.6278
  837UDC     C5 9201  12.612  12.779  12.522  0.0331  0.6589  1.1187
  837UDC     C6 9202  12.675  12.774  12.668 -0.2985  0.4419  1.1369
  837UDC     C7 9203  12.801  12.869  12.670 -0.4433  0.7165 -0.7440
  837UDC     C8 9204  12.761  13.015  12.692 -0.2379  0.0511  0.9028
  837UDC     C9 9205  12.760  13.097  12.554  0.2137  0.1895  0.0604
  837UDC    C10 9206  12.686  13.229  12.593 -1.2941  0.2795  0.0870
  837UDC    C11 9207  12.663  13.327  12.478  0.9354 -0.1345 -0.2635
  838UDC     C1 9208  13.887   8.004   6.675 -0.1390  0.1349 -1.1405
  838UDC     C2 9209  14.003   7.952   6.599  0.5726 -0.1519 -0.2015
  838UDC     C3 9210  14.034   8.017   6.460 -1.3401 -0.0952 -0.5075
  838UDC     C4 9211  14.029   8.175   6.444  0.3947  0.9307  1.6036
  838UDC     C5 9212  14.037   8.209   6.295 -0.2347  0.3526  0.1913
  838UDC     C6 9213  13.962   8.146   6.181 -0.2043 -0.8626  0.2188
  838UDC     C7 9214  14.025   8.124   6.039 -0.6857 -0.0171  0.1391
  838UDC     C8 9215  13.949   8.045   5.943  0.2329  0.5877  0.0918
  838UDC     C9 9216  13.801   8.011   5.968  0.5055 -0.0847 -0.4433
  838UDC    C10 9217  13.705   7.987   5.846  0.2720  0.9738 -0.0073
  838UDC    C11 9218  13.559   7.952   5.892  1.1995 -1.3993 -0.2154
  839UDC     C1 9219  15.297   0.556  11.578  0.3600 -0.8662 -0.0463
  839UDC     C2 9220  15.309   0.410  11.549 -0.6029  0.3414 -0.2007
  839UDC     C3 9221  15.279   0.312  11.668 -0.6858  0.6140  0.6406
  839UDC     C4 9222  15.372   0.322  11.788 -0.5507 -0.5878  0.7794
  839UDC     C5 9223  15.321   0.300  11.929  1.0893 -0.4006 -0.2009
  839UDC     C6 9224  15.418   0.343  12.048  0.5200  0.4560  0.5324
  839UDC     C7 9225  15.377   0.298  12.184  0.0639 -0.2230  0.1054
  839UDC     C8 9226  15.300   0.407  12.263 -0.3477 -0.2954 -0.4146
  839UDC     C9 9227  15.278   0.346  12.403  0.3179 -0.7719 -0.0239
  839UDC    C10 9228  15.199   0.450  12.480 -0.2568 -0.2766 -1.5657
  839UDC    C11 9229  15.290   0.568  12.502 -0.4490  0.5278 -0.0650
  840UDC     C1 9230  19.913   3.814  19.801  0.4633  0.2494 -0.2028
  840UDC     C2 9231  19.771   3.824  19.752  0.2520 -0.9283  0.1784
  840UDC     C3 9232  19.687   3.692  19.746  0.6589 -0.4661  0.0194
  840UDC     C4 9233  19.559   3.694  19.659 -0.0700  0.1302 -0.5195
  840UDC     C5 9234  19.532   3.838  19.601  1.3534 -0.8635 -0.5325
  840UDC     C6 9235  19.464   3.827  19.465  0.4479  0.3733 -0.3620
  840UDC     C7 9236  19.307   3.822  19.475 -1.3292 -0.5855 -0.6131
  840UDC     C8 9237  19.239   3.823  19.343  0.4902  1.0218  1.5084
  840UDC     C9 9238  19.089   3.805  19.358  0.7301 -0.7595  0.4190
  840UDC    C10 9239  19.029   3.888  19.238  0.2600  0.4979 -0.5872
  840UDC    C11 9240  18.921   4.007  19.242  0.0829  1.2435  1.0741
  841UDC     C1 9241  12.900  18.063   6.084 -0.6624 -1.1008  0.6249
  841UDC     C2 9242  12.973  18.161   5.983 -0.8253  0.3069 -0.6988
  841UDC     C3 9243  12.883  18.217   5.875 -0.0388 -0.3844  0.1374
  841UDC     C4 9244  12.939  18.292   5.755  0.8019 -0.5321 -0.1970
  841UDC     C5 9245  12.832  18.286   5.637 -1.0151  0.1128  0.2999
  841UDC     C6 9246  12.918  18.248   5.518 -1.2476 -0.1463  0.3584
  841UDC     C7 9247  12.854  18.218   5.378  0.6928 -0.8226 -0.4357
  841UDC     C8 9248  12.804  18.076   5.369  0.0157  0.6547 -0.7331
  841UDC     C9 9249  12.753  18.054   5.222  0.7946 -0.2935 -0.5931
  841UDC    C10 9250  12.606  18.109   5.197 -1.4719 -0.0170  0.4374
  841UDC    C11 9251  12.512  18.040   5.283 -0.3024 -0.1775  0.0082
  842UDC     C1 9252  15.922  13.938  11.325  1.6074  0.4891 -0.1008
  842UDC     C2 9253  16.024  13.839  11.379  0.9762  0.0017 -0.7243
  842UDC     C3 9254  16.154  13.904  11.428 -0.0038 -0.3403 -0.6065
  842UDC     C4 9255  16.280  13.819  11.422 -0.9511 -0.0306  0.0556
  842UDC     C5 9256  16.279  13.689  11.504 -0.3005 -0.0088  0.2932
  842UDC     C6 9257  16.409  13.609  11.498  0.3466 -1.2179  0.2406
  842UDC     C7 9258  16.422  13.471  11.571  0.2538 -0.2477 -0.6542
  842UDC     C8 9259  16.559  13.417  11.566 -0.4249  0.5304 -0.6319
  842UDC     C9 9260  16.640  13.412  11.693 -0.6972 -0.2345  0.1564
  842UDC    C10 9261  16.782  13.374  11.663 -0.8840  1.3143 -0.7323
  842UDC    C11 9262  16.823  13.232  11.605  0.3187 -0.1716 -0.1906
  843UDC     C1 9263   3.178   9.912  19.343  1.0562 -0.5327 -0.1588
  843UDC     C2 9264   3.265   9.980  19.240 -0.7575  0.5808  0.2023
  843UDC     C3 9265   3.239  10.134  19.249 -0.4800  0.3173 -0.1310
  843UDC     C4 9266   3.348  10.210  19.167  0.8542 -0.3420 -0.2749
  843UDC     C5 9267   3.318  10.364  19.160 -0.2068  0.4243 -0.1123
  843UDC     C6 9268   3.370  10.415  19.024  1.1437  0.0226 -0.3661
  843UDC     C7 9269   3.296  10.365  18.897  0.2552  0.5516  0.2610
  843UDC     C8 9270   3.153  10.414  18.894  0.2062 -0.0595 -0.3069
  843UDC     C9 9271   3.137  10.568  18.893  0.7108  0.3177  2.0603
  843UDC    C10 9272   3.015  10.646  18.844 -0.5844 -0.0257  0.3300
  843UDC    C11 9273   2.958  10.596  18.711 -0.4315 -1.1730  0.5704
  844UDC     C1 9274  12.295  12.067   3.734 -0.3637  1.1334  1.7794
  844UDC     C2 9275  12.155  12.045   3.803 -0.0918  0.4106  0.5044
  844UDC     C3 9276  12.150  11.961   3.931 -0.2281 -0.7315  0.1865
  844UDC     C4 9277  12.258  12.003   4.042  0.4851  0.4142  0.6730
  844UDC     C5 9278  12.287  11.903   4.157  0.6601  0.5002  0.4072
  844UDC     C6 9279  12.233  11.766   4.103 -0.3414  1.0425 -0.0221
  844UDC     C7 9280  12.269  11.658   4.200  0.3665  0.0153  0.1998
  844UDC     C8 9281  12.295  11.523   4.137 -0.3323 -0.4059  0.5233
  844UDC     C9 9282  12.165  11.470   4.072 -0.3246  0.6111 -0.0091
  844UDC    C10 9283  12.170  11.320   4.032  0.1957  0.3593 -0.3767
  844UDC    C11 9284  12.037  11.248   3.980  0.6664 -1.2594 -0.2576
  845UDC     C1 9285  13.585  19.270  15.562  0.6411  0.3872  0.0963
  845UDC     C2 9286  13.629  19.411  15.532  0.1044 -0.1938 -0.0017
  845UDC     C3 9287  13.518  19.516  15.528  0.8739 -0.6303 -0.3043
  845UDC     C4 9288  13.566  19.666  15.520 -0.0709  0.1506  0.9554
  845UDC     C5 9289  13.457  19.781  15.518 -0.7153 -0.1138  0.4404
  845UDC     C6 9290  13.371  19.761  15.644 -1.2827 -0.2789  0.2234
  845UDC     C7 9291  13.447  19.819  15.765 -0.6779  1.3071 -0.0327
  845UDC     C8 9292  13.357  19.800  15.892  0.6456  0.6650  0.3023
  845UDC     C9 9293  13.370  19.915  15.995  0.5950 -0.1617  0.2865
  845UDC    C10 9294  13.252  19.955  16.084 -0.3724  0.6496  0.5325
  845UDC    C11 9295  13.272  20.072  16.175  0.0801 -0.4162 -0.2429
  846UDC     C1 9296  15.328   1.692   6.735  0.7682  1.1555  0.1216
  846UDC     C2 9297  15.267   1.810   6.806  0.3723 -0.3353  0.3539
  846UDC     C3 9298  15.365   1.913   6.849 -0.1044 -0.1877  1.0493
  846UDC     C4 9299  15.281   2.032   6.897 -0.2190  0.4454 -0.9520
  846UDC     C5 9300  15.300   2.182   6.858  1.0441  0.6083 -0.3285
  846UDC     C6 9301  15.438   2.239   6.887  0.5103  0.4320 -0.4668
  846UDC     C7 9302  15.431   2.350   6.985  1.5306 -1.1613 -0.3679
  846UDC     C8 9303  15.551   2.448   6.978 -0.1065  0.5568 -0.0619
  846UDC     C9 9304  15.538   2.496   6.831 -0.4975  0.1547 -0.1680
  846UDC    C10 9305  15.613   2.618   6.784  0.0083  0.0982  0.3154
  846UDC    C11 9306  15.554   2.672   6.657  0.4941 -0.3653 -0.3131
  847UDC     C1 9307   5.707   9.674   5.648 -1.2730  0.5169  0.4601
  847UDC     C2 9308   5.760   9.786   5.734 -0.8193 -0.0479 -0.1908
  847UDC     C3 9309   5.871   9.873   5.663 -0.0978 -0.5511  0.1806
  847UDC     C4 9310   5.921   9.991   5.745 -0.8143 -0.3100 -0.5421
  847UDC     C5 9311   5.814  10.089   5.767  0.8082 -0.2708  0.2192
  847UDC     C6 9312   5.865  10.220   5.824  0.9999 -0.3422 -0.6090
  847UDC     C7 9313   5.946  10.188   5.956  0.5130 -0.4196 -0.9193
  847UDC     C8 9314   6.022  10.306   6.028 -0.0079  0.8739  0.3852
  847UDC     C9 9315   6.127  10.370   5.933 -0.2484 -0.0749  0.2082
  847UDC    C10 9316   6.239  10.436   6.010  1.0471 -0.3389 -0.6920
  847UDC    C11 9317   6.164  10.543   6.098  0.0843 -0.0298 -0.0922
  848UDC     C1 9318  14.474  12.564   0.748 -0.1458  0.7990  0.3973
  848UDC     C2 9319  14.365  12.494   0.658  0.2475 -0.2781 -0.4257
  848UDC     C3 9320  14.242  12.461   0.733  0.0806 -0.9898 -0.8063
  848UDC     C4 9321  14.109  12.479   0.658  1.6044  0.4367 -0.2184
  848UDC     C5 9322  13.972  12.430   0.718 -0.3177 -0.6900 -0.0576
  848UDC     C6 9323  13.859  12.456   0.621  0.3179 -0.5846 -0.6955
  848UDC     C7 9324  13.734  12.430   0.706 -0.3889  0.1928  0.5547
  848UDC     C8 9325  13.609  12.403   0.618  0.7479 -0.0636  0.1191
  848UDC     C9 9326  13.579  12.506   0.507  1.3451 -0.0635 -0.0614
  848UDC    C10 9327  13.546  12.640   0.585  0.2195 -0.3100  0.6003
  848UDC    C11 9328  13.397  12.660   0.615  0.9594  0.5121  0.0254
  849UDC     C1 9329  14.936   7.696  10.199  0.4418  0.2588 -0.7476
  849UDC     C2 9330  14.885   7.698  10.051 -0.3273  0.2301  0.4324
  849UDC     C3 9331  14.990   7.741   9.944  0.2785  0.8156 -0.2830
  849UDC     C4 9332  15.118   7.663   9.967 -0.5536 -1.1616  0.3490
  849UDC     C5 9333  15.220   7.650   9.852  0.2106  0.3701  0.2698
  849UDC     C6 9334  15.304   7.533   9.903  0.3404  0.5729 -0.7949
  849UDC     C7 9335  15.450   7.532   9.855  0.8223 -1.5205  0.5518
  849UDC     C8 9336  15.545   7.426   9.914  0.0536 -0.2730  1.2168
  849UDC     C9 9337  15.682   7.414   9.839 -0.1151  0.1902  0.7254
  849UDC    C10 9338  15.727   7.280   9.902  1.0496 -0.0170  0.4736
  849UDC    C11 9339  15.672   7.150   9.865  0.5675  0.3351  0.2886
  850UDC     C1 9340  16.048  15.619   3.725  0.4888 -0.6127 -0.0731
  850UDC     C2 9341  16.152  15.583   3.613 -1.0227 -0.5626 -0.3085
  850UDC     C3 9342  16.099  15.479   3.509  0.2236  0.2447  0.7164
  850UDC     C4 9343  16.209  15.423   3.411 -0.2357 -0.5888 -0.9395
  850UDC     C5 9344  16.272  15.529   3.320 -0.6598 -1.2135  0.0308
  850UDC     C6 9345  16.197  15.584   3.202 -0.0061 -0.4750  0.2788
  850UDC     C7 9346  16.107  15.714   3.213 -0.0015  0.0128 -0.3273
  850UDC     C8 9347  16.108  15.811   3.332 -0.1015 -0.3977 -0.1447
  850UDC     C9 9348  16.009  15.926   3.323  0.5415  0.1020  0.1794
  850UDC    C10 9349  16.028  16.024   3.443  0.3323 -0.2037  0.5207
  850UDC    C11 9350  15.924  16.137   3.459 -0.0598  0.1585  0.0339
  851UDC     C1 9351  14.738   9.523   3.380 -0.5596 -0.4075 -0.3951
  851UDC     C2 9352  14.591   9.521   3.408 -0.0164 -0.3017 -0.7136
  851UDC     C3 9353  14.518   9.614   3.313  1.0027  0.4521 -1.0975
  851UDC     C4 9354  14.370   9.582   3.292  1.6956  0.4448 -0.0304
  851UDC     C5 9355  14.309   9.697   3.215 -0.4265 -0.2197  0.0417
  851UDC     C6 9356  14.344   9.686   3.073  0.0891 -0.1005  0.9651
  851UDC     C7 9357  14.288   9.572   2.993  0.6132 -0.3841 -1.2352
  851UDC     C8 9358  14.351   9.551   2.852  0.8121 -0.4842 -0.2216
  851UDC     C9 9359  14.275   9.447   2.771 -1.0103 -0.4720 -0.5915
  851UDC    C10 9360  14.365   9.368   2.670 -0.2218 -0.0346  0.2276
  851UDC    C11 9361  14.476   9.464   2.607  1.2644 -0.6214  0.2574
  852UDC     C1 9362  17.547   1.507   3.130 -0.8897  0.1606 -1.2810
  852UDC     C2 9363  17.400   1.480   3.109  0.7405  0.0448 -0.4583
  852UDC     C3 9364  17.361   1.340   3.073  0.4625 -0.3352 -0.0627
  852UDC     C4 9365  17.212   1.313   3.025 -0.4074 -0.2603  0.1927
  852UDC     C5 9366  17.207   1.376   2.883 -0.0321  0.3124  0.8120
  852UDC     C6 9367  17.197   1.275   2.768 -0.5499 -0.4135 -0.0433
  852UDC     C7 9368  17.316   1.174   2.753  0.5652 -0.8907 -0.1752
  852UDC     C8 9369  17.271   1.068   2.644 -0.7363  0.3335  0.1375
  852UDC     C9 9370  17.168   0.974   2.709 -1.0987 -0.9736  0.1963
  852UDC    C10 9371  17.067   0.916   2.609 -0.1462 -0.7279  0.9541
  852UDC    C11 9372  17.116   0.885   2.470  0.6522  0.4545  1.3423
  853UDC     C1 9373  17.925   5.036  17.461  0.1215 -0.3576  0.2985
  853UDC     C2 9374  17.968   4.948  17.343  0.3160  0.8413 -0.1593
  853UDC     C3 9375  18.000   5.029  17.221  0.1343 -0.9654  0.7891
  853UDC     C4 9376  17.886   5.074  17.137  0.4678 -0.4598 -0.1969
  853UDC     C5 9377  17.796   4.962  17.085  0.5709  0.5218  0.4143
  853UDC     C6 9378  17.868   4.845  17.011 -0.0867  0.0645  0.1835
  853UDC     C7 9379  17.923   4.899  16.881  0.7331 -0.1540 -0.3764
  853UDC     C8 9380  17.961   4.799  16.772 -1.0319 -0.1213 -0.6997
  853UDC     C9 9381  17.997   4.860  16.637  0.8423  0.1015 -1.0352
  853UDC    C10 9382  17.883   4.908  16.549  0.5340  0.2305  0.4989
  853UDC    C11 9383  17.898   5.022  16.455 -0.9491 -0.3374  1.5811
  854UDC     C1 9384   9.692   6.376  17.149 -0.9610  0.8408  0.5321
  854UDC     C2 9385   9.803   6.469  17.188  0.1292 -0.4695 -0.5898
  854UDC     C3 9386   9.860   6.435  17.327 -0.2553  0.9140 -0.7441
  854UDC     C4 9387  10.005   6.456  17.356 -0.1928 -0.0163 -1.1496
  854UDC     C5 9388  10.057   6.544  17.251 -0.0438  0.1367  0.2907
  854UDC     C6 9389  10.203   6.560  17.279  0.3128  0.0120  0.0793
  854UDC     C7 9390  10.262   6.681  17.203  0.2850 -0.7680  0.3816
  854UDC     C8 9391  10.295   6.818  17.281  0.8097  0.5305  0.5849
  854UDC     C9 9392  10.426   6.824  17.361  0.1868  0.4635 -0.0511
  854UDC    C10 9393  10.493   6.958  17.401  0.7278 -0.2845  0.3024
  854UDC    C11 9394  10.624   6.933  17.469  0.0235  0.5111  0.0457
  855UDC     C1 9395   4.279  12.122  11.590 -0.8841  1.1651 -0.1918
  855UDC     C2 9396   4.313  12.272  11.590  0.5942 -0.1091 -0.1306
  855UDC     C3 9397   4.283  12.345  11.455  0.5263  0.3369  0.7020
  855UDC     C4 9398   4.397  12.304  11.360  0.5939 -0.7003  0.0008
  855UDC     C5 9399   4.483  12.425  11.324  0.0847  0.6748  0.1701
  855UDC     C6 9400   4.601  12.392  11.239  1.2460 -0.2830 -0.4594
  855UDC     C7 9401   4.722  12.329  11.287  0.9676 -0.4838 -0.2481
  855UDC     C8 9402   4.768  12.381  11.419 -1.9089 -0.1123 -1.0882
  855UDC     C9 9403   4.885  12.301  11.477 -0.5007  1.6385 -0.6355
  855UDC    C10 9404   4.875  12.142  11.477  0.1132 -0.7509 -0.3225
  855UDC    C11 9405   4.996  12.078  11.548  0.5810 -0.5633 -0.0137
  856UDC     C1 9406   8.814  13.739  11.634 -0.4214 -0.4992 -0.3650
  856UDC     C2 9407   8.924  13.759  11.534  0.7500 -0.0251 -0.1470
  856UDC     C3 9408   8.997  13.625  11.483  1.4141  0.8721 -0.2172
  856UDC     C4 9409   9.124  13.633  11.399 -0.0174 -0.4394 -0.3326
  856UDC     C5 9410   9.154  13.519  11.295 -0.4122  0.6942  1.1813
  856UDC     C6 9411   9.214  13.586  11.167  0.4834  0.1615  1.2399
  856UDC     C7 9412   9.202  13.490  11.041 -0.2420 -1.4086 -0.7157
  856UDC     C8 9413   9.333  13.431  10.984  0.4233 -0.8391  0.2862
  856UDC     C9 9414   9.330  13.382  10.840 -0.1901 -0.1629  0.2325
  856UDC    C10 9415   9.452  13.299  10.785 -0.0618  0.1357  0.2852
  856UDC    C11 9416   9.505  13.169  10.844  0.3132  0.6205 -1.4533
  857UDC     C1 9417   5.708   1.550  15.340  0.1055 -0.1600 -0.5739
  857UDC     C2 9418   5.589   1.506  15.250  0.3015 -1.1276 -0.3915
  857UDC     C3 9419   5.593   1.535  15.098 -1.2245  0.4142  0.4628
  857UDC     C4 9420   5.644   1.676  15.070 -0.6826 -0.2278  1.2411
  857UDC     C5 9421   5.561   1.744  14.967 -0.3875  0.6022  0.1056
  857UDC     C6 9422   5.593   1.711  14.819  0.3926 -0.0112  0.1773
  857UDC     C7 9423   5.469   1.724  14.727 -0.4626  0.8514 -0.1544
  857UDC     C8 9424   5.491   1.696  14.579  0.2326 -1.2382  0.7117
  857UDC     C9 9425   5.355   1.694  14.489 -0.2008 -0.7356 -0.3470
  857UDC    C10 9426   5.381   1.602  14.365 -0.2860  0.8580  0.5081
  857UDC    C11 9427   5.273   1.622  14.257  0.2617  1.8772 -0.9440
  858UDC     C1 9428  15.404   9.411   5.201 -1.4581 -0.1931  0.1197
  858UDC     C2 9429  15.552   9.369   5.218  0.4425 -0.2708  0.4647
  858UDC     C3 9430  15.632   9.392   5.092  0.2078  0.6022 -1.5575
  858UDC     C4 9431  15.646   9.543   5.084 -0.3711 -0.2284  0.7535
  858UDC     C5 9432  15.784   9.598   5.033 -0.9538 -0.0100  0.3599
  858UDC     C6 9433  15.812   9.747   5.074 -0.1197  0.2838 -1.1921
  858UDC     C7 9434  15.919   9.833   5.006 -1.3848 -0.5508  0.0274
  858UDC     C8 9435  15.944   9.973   5.074 -0.0773  0.7664 -0.3340
  858UDC     C9 9436  16.017  10.062   4.971 -1.0010 -0.7473  1.5245
  858UDC    C10 9437  16.072  10.188   5.034 -0.2670 -0.3656 -0.3349
  858UDC    C11 9438  15.958  10.256   5.112  0.9681 -0.2287  0.1903
  859UDC     C1 9439   0.015   6.911  11.388  0.8956 -0.3088  0.6628
  859UDC     C2 9440   0.076   6.959  11.254  0.6889 -0.3120  0.6082
  859UDC     C3 9441  -0.043   7.016  11.173  1.3061 -0.1375 -0.8078
  859UDC     C4 9442  -0.021   7.168  11.143 -1.6730  0.7165 -0.3777
  859UDC     C5 9443   0.029   7.264  11.258 -0.2099 -0.4290 -0.9749
  859UDC     C6 9444   0.032   7.417  11.227 -0.8180 -0.7579 -0.5322
  859UDC     C7 9445  -0.100   7.491  11.249  1.0587 -0.3598 -0.7280
  859UDC     C8 9446  -0.094   7.628  11.177 -1.1747 -0.0710 -0.2609
  859UDC     C9 9447  -0.007   7.745  11.224  0.0814  0.2123  0.1243
  859UDC    C10 9448  -0.070   7.869  11.161  0.7746 -0.2210 -1.5230
  859UDC    C11 9449  -0.204   7.915  11.220 -0.0677  0.6363 -1.6221
  860UDC     C1 9450   3.987   9.782   4.360  0.0443 -0.3234 -0.2924
  860UDC     C2 9451   3.866   9.836   4.270 -0.7228 -0.3334 -0.2695
  860UDC     C3 9452   3.798   9.962   4.318 -0.3708  0.7232 -0.1922
  860UDC     C4 9453   3.740  10.050   4.205  1.0173  0.6127 -0.2282
  860UDC     C5 9454   3.654   9.966   4.109 -0.1532 -1.1770  0.8311
  860UDC     C6 9455   3.539   9.897   4.187  0.6601 -0.5811  1.6008
  860UDC     C7 9456   3.445   9.827   4.093  0.2690 -1.1355 -0.1485
  860UDC     C8 9457   3.343   9.746   4.165 -1.5914  0.7826  0.3787
  860UDC     C9 9458   3.417   9.645   4.263  0.5194  0.7463 -0.2594
  860UDC    C10 9459   3.514   9.542   4.207  0.2686 -0.0724  0.4529
  860UDC    C11 9460   3.549   9.421   4.304 -0.7826  0.1236 -0.5296
  861UDC     C1 9461   8.154   7.646   5.847  0.6989 -0.5010  0.1611
  861UDC     C2 9462   8.199   7.693   5.983 -0.2488  0.2196 -1.3860
  861UDC     C3 9463   8.246   7.839   5.991  1.1985 -0.4972 -0.8140
  861UDC     C4 9464   8.234   7.909   6.131 -0.5722 -0.9865  0.3384
  861UDC     C5 9465   8.222   8.064   6.105  0.0557 -1.3567 -0.1975
  861UDC     C6 9466   8.211   8.157   6.230 -0.7070 -0.6342  0.2341
  861UDC     C7 9467   8.158   8.301   6.203 -0.7781 -0.5346 -0.2218
  861UDC     C8 9468   8.010   8.321   6.154 -0.6866  0.2807 -0.0224
  861UDC     C9 9469   7.967   8.463   6.137 -0.2965  0.0408  0.5973
  861UDC    C10 9470   7.808   8.480   6.118 -2.2657  0.3184 -0.0266
  861UDC    C11 9471   7.753   8.382   6.017  0.4262 -0.3171 -0.4175
  862UDC     C1 9472  11.423  16.078  11.831  0.5180 -0.5216  0.0951
  862UDC     C2 9473  11.533  16.182  11.831 -0.4041 -0.1666 -0.4475
  862UDC     C3 9474  11.661  16.127  11.768  0.7954 -1.0895  0.2953
  862UDC     C4 9475  11.657  16.100  11.613  0.2863  0.0759 -0.0127
  862UDC     C5 9476  11.761  15.989  11.572  0.6529 -0.1543 -0.7368
  862UDC     C6 9477  11.738  15.978  11.425  0.6301 -0.3395 -0.0812
  862UDC     C7 9478  11.806  15.868  11.341  0.9640 -0.5513  0.0014
  862UDC     C8 9479  11.755  15.727  11.369 -0.1044  0.2134  1.3787
  862UDC     C9 9480  11.737  15.622  11.258 -0.1080  0.2327 -0.6715
  862UDC    C10 9481  11.813  15.642  11.128  0.1890  0.6279 -0.1425
  862UDC    C11 9482  11.785  15.528  11.025 -0.2202 -0.2224  0.0738
  863UDC     C1 9483   5.103  10.279  17.332 -0.5350 -1.0865 -0.7217
  863UDC     C2 9484   5.083  10.133  17.355 -0.3444  0.1915  0.4960
  863UDC     C3 9485   5.180  10.027  17.300 -0.5479  0.3546 -0.5264
  863UDC     C4 9486   5.319  10.037  17.378  0.0604 -0.0088  0.4532
  863UDC     C5 9487   5.427   9.938  17.342 -0.2902  0.0571  0.0571
  863UDC     C6 9488   5.557   9.939  17.428 -0.0857  0.4634 -0.4332
  863UDC     C7 9489   5.554   9.941  17.581  0.5954 -0.5948  0.6152
  863UDC     C8 9490   5.691   9.917  17.642  0.4139  0.3714  0.2577
  863UDC     C9 9491   5.717   9.870  17.788 -0.3810  0.2889 -0.8476
  863UDC    C10 9492   5.712   9.974  17.905  1.1841  0.1569  1.2266
  863UDC    C11 9493   5.815  10.087  17.905 -0.1042  1.4733 -1.0277
  864UDC     C1 9494  13.929  12.290  14.590 -0.0444  0.2089  0.8148
  864UDC     C2 9495  13.919  12.301  14.433  0.1654  0.0340  0.0384
  864UDC     C3 9496  13.884  12.167  14.389  1.2095  0.0088  0.9009
  864UDC     C4 9497  13.985  12.064  14.420  0.0628  0.5906 -0.3441
  864UDC     C5 9498  13.947  11.923  14.371 -0.8432  0.1694  0.2467
  864UDC     C6 9499  14.055  11.828  14.402  0.0381  0.3410 -0.4952
  864UDC     C7 9500  14.172  11.865  14.311 -0.0371 -0.7609 -0.4551
  864UDC     C8 9501  14.302  11.831  14.385 -0.0874 -0.0482 -0.6346
  864UDC     C9 9502  14.422  11.814  14.288  0.1364  0.1452  0.1888
  864UDC    C10 9503  14.551  11.745  14.326 -0.1584  0.3600 -0.3868
  864UDC    C11 9504  14.642  11.804  14.446  1.1743  1.4970  0.7955
  865UDC     C1 9505  11.111  12.854  16.914 -0.7540 -1.2972  0.1130
  865UDC     C2 9506  11.030  12.724  16.917  0.1345 -0.2834 -0.0643
  865UDC     C3 9507  11.026  12.628  16.796  0.1909  0.4644 -1.1931
  865UDC     C4 9508  10.962  12.491  16.838 -0.4280  0.2033 -0.7721
  865UDC     C5 9509  10.852  12.423  16.752 -0.5588 -0.4712  0.2139
  865UDC     C6 9510  10.919  12.342  16.643 -0.1540  0.7664 -0.7818
  865UDC     C7 9511  10.829  12.236  16.562  0.7931 -0.6267 -0.4208
  865UDC     C8 9512  10.828  12.130  16.665 -0.3954  1.3669 -0.0905
  865UDC     C9 9513  10.825  11.988  16.604  0.7956 -0.7465 -0.2403
  865UDC    C10 9514  10.960  11.927  16.576 -0.8525 -0.5894  1.2845
  865UDC    C11 9515  10.970  11.776  16.582 -1.7336  0.6952  1.0699
  866UDC     C1 9516   7.106  16.371  12.494  0.4597 -0.0010  0.7300
  866UDC     C2 9517   7.211  16.280  12.559 -0.1806 -0.4560 -0.7542
  866UDC     C3 9518   7.171  16.135  12.577 -0.1603  0.6287 -0.0547
  866UDC     C4 9519   7.264  16.064  12.672  0.7061 -0.1862  0.1630
  866UDC     C5 9520   7.198  15.957  12.768 -0.1105 -0.8802 -0.1857
  866UDC     C6 9521   7.118  15.856  12.681 -0.7358 -0.3372 -0.4505
  866UDC     C7 9522   7.019  15.765  12.759 -0.2570 -0.2034  0.2999
  866UDC     C8 9523   7.078  15.652  12.843 -0.7059  0.6801  0.9405
  866UDC     C9 9524   7.134  15.545  12.751 -1.5886 -1.0232  0.2533
  866UDC    C10 9525   7.071  15.410  12.761  0.0685 -0.5390  0.1693
  866UDC    C11 9526   7.072  15.334  12.893 -0.0763  0.9271  0.0021
  867UDC     C1 9527  19.220  18.384  14.550 -0.4340 -1.2179  0.6266
  867UDC     C2 9528  19.357  18.364  14.616 -0.1424 -0.0407 -0.2093
  867UDC     C3 9529  19.399  18.433  14.746  0.0201  0.2007 -0.6339
  867UDC     C4 9530  19.549  18.425  14.771  0.4336  0.0540  1.1133
  867UDC     C5 9531  19.582  18.319  14.876 -0.0712  0.7404 -0.6660
  867UDC     C6 9532  19.721  18.352  14.948  0.1220 -0.3217 -0.0906
  867UDC     C7 9533  19.710  18.439  15.065  0.5774 -0.5567 -0.2021
  867UDC     C8 9534  19.757  18.587  15.054 -0.4790 -1.0182  0.3831
  867UDC     C9 9535  19.710  18.674  15.174 -0.8065  0.7133  0.3321
  867UDC    C10 9536  19.783  18.814  15.148 -0.1114 -0.7057  0.0076
  867UDC    C11 9537  19.791  18.905  15.275  0.2557  0.1959  0.9131
  868UDC     C1 9538  16.884  10.858  15.888 -0.0756 -0.4537  0.6813
  868UDC     C2 9539  16.790  10.955  15.805 -0.5085 -1.2453  0.3281
  868UDC     C3 9540  16.824  11.034  15.672 -0.0535  0.4263  0.0910
  868UDC     C4 9541  16.715  11.119  15.612 -0.2433  0.1820 -0.6616
  868UDC     C5 9542  16.784  11.193  15.492  0.2862  0.3588 -0.5327
  868UDC     C6 9543  16.806  11.348  15.526  0.0380  0.2161  0.8410
  868UDC     C7 9544  16.694  11.440  15.484 -0.0527  0.5825  0.0073
  868UDC     C8 9545  16.739  11.584  15.507  0.2047  0.6966 -0.1408
  868UDC     C9 9546  16.771  11.628  15.655 -0.2161 -0.2077 -0.8338
  868UDC    C10 9547  16.833  11.764  15.676  1.3021  0.2193  0.8759
  868UDC    C11 9548  16.736  11.873  15.626  0.0017  1.3349  0.1158
  869UDC     C1 9549   8.187   8.649  18.464  1.2042  0.5898 -1.2733
  869UDC     C2 9550   8.184   8.688  18.314  0.8172  0.0284 -0.0862
  869UDC     C3 9551   8.204   8.565  18.220 -0.3614 -0.1934  0.7144
  869UDC     C4 9552   8.155   8.414  18.230  1.3649 -0.3450 -0.1524
  869UDC     C5 9553   8.218   8.321  18.129  0.6895  0.1336  0.0112
  869UDC     C6 9554   8.364   8.339  18.155 -0.0744  0.6087 -0.7445
  869UDC     C7 9555   8.467   8.253  18.071 -0.1303  0.2993  0.3418
  869UDC     C8 9556   8.610   8.231  18.129 -0.2718 -0.3654 -0.5810
  869UDC     C9 9557   8.590   8.165  18.264 -0.2670 -0.2193  0.5691
  869UDC    C10 9558   8.718   8.144  18.349 -0.1558  0.4971 -1.0456
  869UDC    C11 9559   8.707   8.109  18.501  0.0926  0.2193 -0.8597
  870UDC     C1 9560  14.801   7.232   4.806  0.0649 -0.2410 -0.2586
  870UDC     C2 9561  14.819   7.365   4.888  1.0314 -0.8943  0.6853
  870UDC     C3 9562  14.963   7.379   4.929 -0.0872 -0.4051 -0.1167
  870UDC     C4 9563  14.995   7.507   4.996 -0.3978 -0.3948 -1.5047
  870UDC     C5 9564  14.914   7.543   5.128  0.0739  0.7875 -0.6973
  870UDC     C6 9565  14.960   7.453   5.250 -0.2162  0.0374  0.1373
  870UDC     C7 9566  14.880   7.463   5.385 -1.0054  0.0492  0.2635
  870UDC     C8 9567  14.830   7.604   5.428  0.1866 -0.4338 -0.6485
  870UDC     C9 9568  14.773   7.585   5.573 -1.5293 -0.3123  0.9443
  870UDC    C10 9569  14.748   7.701   5.668  0.4043 -0.3256 -0.1216
  870UDC    C11 9570  14.647   7.795   5.613  1.3095  0.9841  0.3093
  871UDC     C1 9571   1.996  13.522   9.606 -0.7569  0.4322  0.3872
  871UDC     C2 9572   2.034  13.603   9.475  0.6395 -0.1185  0.1573
  871UDC     C3 9573   1.993  13.537   9.344  0.5162 -0.6948  0.4763
  871UDC     C4 9574   2.039  13.585   9.199  0.4926  0.9032  1.2203
  871UDC     C5 9575   1.929  13.575   9.091  0.5026 -0.5284 -0.3022
  871UDC     C6 9576   1.964  13.684   8.985  0.0658  0.4287 -0.7807
  871UDC     C7 9577   1.887  13.689   8.861  1.2173 -0.3575  0.5854
  871UDC     C8 9578   1.853  13.545   8.826  0.0199 -0.0304  0.4382
  871UDC     C9 9579   1.799  13.537   8.683  0.1460  0.0454 -0.2950
  871UDC    C10 9580   1.769  13.388   8.656 -0.0410 -0.4572  0.3945
  871UDC    C11 9581   1.717  13.315   8.781  0.1202 -0.7167  0.2801
  872UDC     C1 9582   2.515   2.981   7.399  0.0344  0.9023 -0.0820
  872UDC     C2 9583   2.520   3.118   7.464  0.1901  0.1163  0.2849
  872UDC     C3 9584   2.577   3.112   7.610  1.1802 -1.1049  0.5026
  872UDC     C4 9585   2.552   3.229   7.718  0.5114  1.1638  0.4843
  872UDC     C5 9586   2.399   3.234   7.736  0.6385  1.5306  0.0739
  872UDC     C6 9587   2.335   3.349   7.815 -1.2660 -0.5402  0.8719
  872UDC     C7 9588   2.361   3.308   7.960  0.4956  0.3662 -0.1068
  872UDC     C8 9589   2.346   3.163   8.014 -0.5178 -0.4773  0.5785
  872UDC     C9 9590   2.391   3.120   8.153  1.2395  0.3556 -0.5640
  872UDC    C10 9591   2.354   2.972   8.197 -0.1889  0.1432  0.2552
  872UDC    C11 9592   2.229   2.957   8.274 -0.0788  0.4197 -1.0951
  873UDC     C1 9593  19.188  18.255   8.807 -0.0848  0.8783  1.7109
  873UDC     C2 9594  19.142  18.257   8.654 -0.0521  0.1877  0.6039
  873UDC     C3 9595  18.995  18.229   8.626 -1.2240 -0.3174  2.5078
  873UDC     C4 9596  18.947  18.195   8.479 -0.2687  0.3520 -0.2024
  873UDC     C5 9597  18.811  18.255   8.442  0.7989 -1.1442  0.3730
  873UDC     C6 9598  18.812  18.406   8.436 -0.0806  0.3359 -0.8787
  873UDC     C7 9599  18.699  18.496   8.382 -0.1410  0.4529 -0.4114
  873UDC     C8 9600  18.710  18.646   8.427 -0.0929  0.4079  0.5484
  873UDC     C9 9601  18.817  18.701   8.334  0.0935 -0.4628 -0.9755
  873UDC    C10 9602  18.815  18.846   8.285 -0.0455  0.6306  0.6336
  873UDC    C11 9603  18.695  18.872   8.193  0.1057  0.5576  0.5600
  874UDC     C1 9604  19.692  17.214   1.508 -1.5027 -0.2396 -1.2089
  874UDC     C2 9605  19.811  17.122   1.538  0.5681  0.4870  0.5325
  874UDC     C3 9606  19.777  17.031   1.663 -0.6803 -0.2867  0.4318
  874UDC     C4 9607  19.905  16.950   1.682 -0.0595  0.1202 -0.5980
  874UDC     C5 9608  19.887  16.862   1.804  0.1088 -0.3888  0.8217
  874UDC     C6 9609  19.874  16.940   1.935 -0.5255  0.4594 -1.2500
  874UDC     C7 9610  19.863  16.837   2.046  0.1015 -0.8519  0.3843
  874UDC     C8 9611  19.879  16.900   2.190 -1.0216  0.8327  1.1525
  874UDC     C9 9612  19.813  16.823   2.305  0.1639 -0.5574 -0.5387
  874UDC    C10 9613  19.660  16.830   2.322 -0.7615  0.8624  0.4452
  874UDC    C11 9614  19.593  16.966   2.311 -0.5109 -0.4946  1.0553
  875UDC     C1 9615  17.774  13.448  16.427 -0.1744  0.6013 -0.0342
  875UDC     C2 9616  17.718  13.476  16.288 -0.4716  0.2867  0.2228
  875UDC     C3 9617  17.816  13.538  16.193  0.0824  0.4262  0.6883
  875UDC     C4 9618  17.856  13.679  16.243 -0.0213 -0.1958 -0.1504
  875UDC     C5 9619  18.003  13.697  16.277  0.3442 -0.6028  0.5698
  875UDC     C6 9620  18.071  13.801  16.186 -1.1480  0.8165  0.6329
  875UDC     C7 9621  18.223  13.799  16.197  0.6390  1.2601  0.0924
  875UDC     C8 9622  18.286  13.663  16.187 -0.3556 -0.2728  0.6125
  875UDC     C9 9623  18.334  13.607  16.055  0.2268 -0.0238  0.4926
  875UDC    C10 9624  18.466  13.528  16.059  0.0967  0.2593 -0.4410
  875UDC    C11 9625  18.524  13.454  15.939 -0.4376  0.2933 -0.2289
  876UDC     C1 9626  17.682   5.000   1.218  0.1131 -0.2027  0.4050
  876UDC     C2 9627  17.689   5.085   1.087  0.3731 -0.6754  0.0707
  876UDC     C3 9628  17.566   5.180   1.075  0.3330 -0.0492  0.2625
  876UDC     C4 9629  17.594   5.326   1.119  1.0973  0.9368 -0.3963
  876UDC     C5 9630  17.631   5.336   1.268  0.1627 -0.3190 -0.9269
  876UDC     C6 9631  17.604   5.483   1.314  1.0211  0.6598  0.1672
  876UDC     C7 9632  17.626   5.522   1.462  0.0435 -0.1587 -0.1484
  876UDC     C8 9633  17.593   5.676   1.481 -0.1611 -0.6692 -1.1178
  876UDC     C9 9634  17.642   5.758   1.362  1.4055 -0.2989  0.6228
  876UDC    C10 9635  17.693   5.899   1.397  0.2426 -0.5662 -1.0282
  876UDC    C11 9636  17.732   6.003   1.285  0.2966  0.2274 -1.3156
  877UDC     C1 9637  18.209   9.064   6.834 -0.6197  0.4689 -1.7054
  877UDC     C2 9638  18.063   9.045   6.845  0.2677 -0.4031 -0.0276
  877UDC     C3 9639  18.004   8.938   6.753  0.2790  0.2478  0.3576
  877UDC     C4 9640  17.852   8.923   6.780  0.2635 -1.1663 -0.5536
  877UDC     C5 9641  17.807   8.879   6.914 -0.8413  0.1362 -1.0756
  877UDC     C6 9642  17.797   8.968   7.040  1.0693  0.6894 -0.1186
  877UDC     C7 9643  17.664   8.926   7.120 -0.4275  0.7094  0.2287
  877UDC     C8 9644  17.684   8.795   7.198 -0.1183 -0.3277  0.5895
  877UDC     C9 9645  17.561   8.728   7.249  0.2055  0.4961  0.2722
  877UDC    C10 9646  17.571   8.583   7.294  1.1953 -0.5269 -1.3462
  877UDC    C11 9647  17.637   8.591   7.433 -0.2401 -0.3175 -0.2881
  878UDC     C1 9648  19.862   2.490  15.486 -0.4960  0.7185 -0.3303
  878UDC     C2 9649  19.855   2.435  15.628 -0.7918  0.1360  0.3018
  878UDC     C3 9650  19.972   2.483  15.710 -0.1964 -1.1330 -0.1182
  878UDC     C4 9651  19.926   2.621  15.774 -1.2004 -0.8829 -0.3102
  878UDC     C5 9652  19.807   2.623  15.875 -0.7879  0.2006  1.0670
  878UDC     C6 9653  19.762   2.760  15.910  0.6376  0.5308 -1.3826
  878UDC     C7 9654  19.631   2.757  15.977  0.7725  0.4204 -0.3520
  878UDC     C8 9655  19.561   2.897  15.983 -0.2752  0.8352  0.1146
  878UDC     C9 9656  19.411   2.901  16.003  0.8099  0.2415  0.6906
  878UDC    C10 9657  19.324   3.006  15.917 -1.3096 -0.1863 -1.4582
  878UDC    C11 9658  19.172   2.985  15.934  0.8350 -0.5760 -0.7472
  879UDC     C1 9659  18.086  17.389   9.016  0.4401 -0.0145 -1.0644
  879UDC     C2 9660  18.155  17.495   9.095 -0.0867 -0.0093 -1.0254
  879UDC     C3 9661  18.308  17.454   9.091 -0.2168 -0.1978  0.1521
  879UDC     C4 9662  18.371  17.363   9.198 -0.0808  0.6835 -0.1661
  879UDC     C5 9663  18.345  17.212   9.192 -0.7352  0.6306 -0.7083
  879UDC     C6 9664  18.460  17.116   9.143  0.1071  0.7179  0.3601
  879UDC     C7 9665  18.421  16.967   9.198 -0.4203 -0.8458  0.4407
  879UDC     C8 9666  18.518  16.849   9.161  0.6563  0.4425  0.2652
  879UDC     C9 9667  18.448  16.716   9.116 -0.3899 -0.6026 -0.1022
  879UDC    C10 9668  18.543  16.589   9.104  0.1016 -0.1281  0.3691
  879UDC    C11 9669  18.655  16.593   8.994  0.4426 -0.4993  0.1990
  880UDC     C1 9670  19.710   5.472  17.078  0.5739 -0.0091  0.2480
  880UDC     C2 9671  19.622   5.548  16.970 -1.5557 -0.1328  0.2159
  880UDC     C3 9672  19.647   5.468  16.844  1.0128 -1.4832  0.2003
  880UDC     C4 9673  19.545   5.509  16.730 -0.1537 -0.0091 -0.0305
  880UDC     C5 9674  19.578   5.448  16.596 -1.1588  0.0878  0.5019
  880UDC     C6 9675  19.553   5.298  16.564 -0.7616 -0.4458  0.0975
  880UDC     C7 9676  19.587   5.231  16.432  0.3283 -1.1213  0.0095
  880UDC     C8 9677  19.730   5.249  16.391 -0.8614 -0.4568  0.2196
  880UDC     C9 9678  19.749   5.195  16.244  1.0095 -0.6887 -0.4969
  880UDC    C10 9679  19.784   5.300  16.136 -0.4940 -0.3748 -0.0608
  880UDC    C11 9680  19.797   5.233  15.998 -1.0950  0.2119 -0.1502
  881UDC     C1 9681  13.993  11.512  18.604  0.8259  0.7442 -0.0469
  881UDC     C2 9682  14.101  11.406  18.614 -0.3655 -0.1829  1.2696
  881UDC     C3 9683  14.057  11.299  18.511 -0.2664 -0.9155 -0.3420
  881UDC     C4 9684  14.180  11.219  18.467 -0.2790 -0.7564  0.6662
  881UDC     C5 9685  14.172  11.133  18.339  0.1787 -0.5928  1.4736
  881UDC     C6 9686  14.292  11.037  18.300  0.2131 -0.4405  0.3183
  881UDC     C7 9687  14.360  10.961  18.417 -0.1463 -0.7757 -0.3533
  881UDC     C8 9688  14.484  10.892  18.352 -0.2663 -0.1441  0.3231
  881UDC     C9 9689  14.581  11.002  18.291 -0.3794 -0.2940  0.2883
  881UDC    C10 9690  14.679  11.050  18.399 -0.4270  0.1371  0.0097
  881UDC    C11 9691  14.787  11.152  18.366  0.6093 -0.4026  1.0568
  882UDC     C1 9692   0.158   4.965   9.379 -0.7238  0.7590 -0.3291
  882UDC     C2 9693   0.088   4.847   9.316 -0.1700 -0.3127  0.9820
  882UDC     C3 9694  -0.064   4.869   9.333  1.0334  0.7210  0.5668
  882UDC     C4 9695  -0.151   4.789   9.241 -0.3609  0.2924 -0.9045
  882UDC     C5 9696  -0.294   4.829   9.250  1.3730 -1.4438 -0.2120
  882UDC     C6 9697  -0.334   4.980   9.213  0.4298  0.2154  0.2405
  882UDC     C7 9698  -0.408   4.994   9.081  0.3049 -0.2707  1.2585
  882UDC     C8 9699  -0.315   4.982   8.951 -0.3426  0.5033  0.7186
  882UDC     C9 9700  -0.226   5.103   8.942 -1.2385  0.0588  0.5716
  882UDC    C10 9701  -0.126   5.081   8.821  0.4592 -0.0096 -0.0004
  882UDC    C11 9702  -0.036   5.197   8.794  0.4693 -0.1377  0.6529
  883UDC     C1 9703   0.245  16.266   2.581 -0.6042  0.8159 -0.2679
  883UDC     C2 9704   0.228  16.151   2.680 -0.8234 -0.5159  0.4622
  883UDC     C3 9705   0.267  16.020   2.602  0.6559 -0.2478  0.6068
  883UDC     C4 9706   0.229  15.914   2.711 -0.3682  1.2868 -0.0731
  883UDC     C5 9707   0.253  15.769   2.657  0.9528 -0.8304  0.9667
  883UDC     C6 9708   0.266  15.674   2.773 -1.4329  0.1133 -1.1607
  883UDC     C7 9709   0.385  15.697   2.867  0.3432  0.2405  0.5747
  883UDC     C8 9710   0.374  15.620   3.002 -0.0461 -0.6823 -0.0967
  883UDC     C9 9711   0.503  15.615   3.084 -0.0439 -0.3010 -0.4115
  883UDC    C10 9712   0.601  15.732   3.125  0.3769  0.6799 -0.9004
  883UDC    C11 9713   0.742  15.734   3.060 -0.0291  0.8192  0.2953
  884UDC     C1 9714  19.164  12.887  10.707  0.1399  0.5873 -0.9618
  884UDC     C2 9715  19.042  12.908  10.605  0.2591 -0.0533 -0.5827
  884UDC     C3 9716  18.936  13.009  10.649  0.3335 -0.3707  0.2580
  884UDC     C4 9717  18.814  13.012  10.552 -0.4339 -1.3323  0.1296
  884UDC     C5 9718  18.847  13.026  10.404 -1.7449 -0.7576 -0.4990
  884UDC     C6 9719  18.807  13.163  10.354 -0.8266 -0.0378 -0.5177
  884UDC     C7 9720  18.850  13.173  10.210 -0.3044 -0.7553 -0.8293
  884UDC     C8 9721  18.973  13.244  10.169 -0.3155 -0.7983  0.8506
  884UDC     C9 9722  19.002  13.233  10.025 -1.3151 -0.7114 -0.2782
  884UDC    C10 9723  18.909  13.291   9.918 -0.2567 -0.2597 -0.4703
  884UDC    C11 9724  18.902  13.444   9.938  0.7769  0.2222  0.1548
  885UDC     C1 9725   9.130   2.981   2.866 -0.0856  0.3233 -0.6122
  885UDC     C2 9726   9.010   3.049   2.804  0.4583 -0.6645 -0.2070
  885UDC     C3 9727   8.949   2.947   2.700 -0.2270 -0.2637  0.2903
  885UDC     C4 9728   8.815   3.000   2.640  0.6675 -0.0869  0.9977
  885UDC     C5 9729   8.708   2.936   2.719  0.0329 -0.0354  0.1226
  885UDC     C6 9730   8.706   2.780   2.710 -1.6259 -0.0824 -0.9258
  885UDC     C7 9731   8.582   2.709   2.774  0.0840 -0.0669  0.0150
  885UDC     C8 9732   8.597   2.559   2.798  0.1426  0.7950  0.0714
  885UDC     C9 9733   8.534   2.479   2.690 -0.2067 -0.0236 -0.5684
  885UDC    C10 9734   8.378   2.508   2.662  0.5807 -0.2744 -0.2043
  885UDC    C11 9735   8.280   2.444   2.764  0.0294 -0.1942  0.5618
  886UDC     C1 9736  18.149   1.006   0.049 -0.8851  0.1437 -0.1697
  886UDC     C2 9737  18.213   1.137   0.082  0.7456 -0.3677  0.1666
  886UDC     C3 9738  18.132   1.245  -0.001 -0.3488  0.5751  0.1878
  886UDC     C4 9739  18.247   1.349  -0.024 -0.0586  0.2317  0.0232
  886UDC     C5 9740  18.190   1.496  -0.034 -0.4695  0.6829 -0.7399
  886UDC     C6 9741  18.293   1.613  -0.051  0.4052 -0.2459  1.3439
  886UDC     C7 9742  18.252   1.758  -0.082  0.8168 -0.2426  1.0859
  886UDC     C8 9743  18.364   1.851  -0.101  0.5355 -0.8758 -0.0311
  886UDC     C9 9744  18.428   1.822  -0.236 -0.2897 -1.0355 -0.4140
  886UDC    C10 9745  18.570   1.882  -0.238 -0.1070  0.3846  0.5360
  886UDC    C11 9746  18.618   1.880  -0.098 -0.1612  0.8634 -0.0487
  887UDC     C1 9747  16.725   3.558   5.994  0.0475 -0.3432 -0.2532
  887UDC     C2 9748  16.795   3.632   5.873  0.1889 -0.2307 -0.2054
  887UDC     C3 9749  16.949   3.610   5.876 -0.5675  0.5082  1.2819
  887UDC     C4 9750  17.002   3.498   5.784  0.0027 -0.5172  0.5699
  887UDC     C5 9751  17.089   3.408   5.865  0.8887  0.0998  0.3744
  887UDC     C6 9752  17.112   3.264   5.820  0.0590 -0.6648  0.5260
  887UDC     C7 9753  16.995   3.160   5.818 -0.7621 -0.3892  0.3573
  887UDC     C8 9754  17.025   3.018   5.758 -0.3224  0.4247  0.7246
  887UDC     C9 9755  16.925   2.907   5.740  0.7971  0.5022  0.2356
  887UDC    C10 9756  16.971   2.806   5.634  1.5457  1.6426  0.0809
  887UDC    C11 9757  16.856   2.705   5.590  0.0915 -0.2384  0.4588
  888UDC     C1 9758  18.581   9.812  10.234  1.4969 -0.7933  0.6361
  888UDC     C2 9759  18.539   9.807  10.377  1.5820 -0.7133 -0.5488
  888UDC     C3 9760  18.470   9.935  10.442  0.0671 -0.2086 -0.0413
  888UDC     C4 9761  18.442   9.935  10.591 -0.2183  0.4964 -0.3563
  888UDC     C5 9762  18.379  10.076  10.633 -0.7639 -0.1716  0.7599
  888UDC     C6 9763  18.242  10.124  10.592  0.2424 -0.3545  0.1723
  888UDC     C7 9764  18.178  10.200  10.712 -0.5298  0.8843  0.4337
  888UDC     C8 9765  18.039  10.249  10.660 -0.1927 -0.8206  1.0164
  888UDC     C9 9766  18.054  10.369  10.559 -0.9913 -0.8345 -0.8961
  888UDC    C10 9767  17.916  10.440  10.557  0.1588  0.4516  0.7023
  888UDC    C11 9768  17.888  10.528  10.434  0.1087  0.8270 -1.0194
  889UDC     C1 9769   8.426  12.822  11.097 -0.0765 -0.6278  0.3545
  889UDC     C2 9770   8.322  12.759  11.004 -0.6041  0.8701  0.0586
  889UDC     C3 9771   8.307  12.609  11.023  0.0714 -0.3254  0.5514
  889UDC     C4 9772   8.424  12.516  10.994  0.2800 -0.8192 -0.5738
  889UDC     C5 9773   8.477  12.452  11.126  1.2384 -0.1985 -0.6606
  889UDC     C6 9774   8.608  12.376  11.117  0.5195 -0.2840  0.2639
  889UDC     C7 9775   8.679  12.326  11.243 -0.5757  0.1142  0.5252
  889UDC     C8 9776   8.824  12.269  11.236  0.7288 -0.0664 -0.7842
  889UDC     C9 9777   8.914  12.292  11.364  0.3734  0.3640  0.4149
  889UDC    C10 9778   9.062  12.258  11.334 -0.6048 -0.0290 -1.7925
  889UDC    C11 9779   9.142  12.247  11.466 -0.1484  0.1385  0.4160
  890UDC     C1 9780  19.289   0.021   0.371 -0.0861 -0.4541 -0.4991
  890UDC     C2 9781  19.161   0.099   0.330  1.0106 -0.8471 -1.3555
  890UDC     C3 9782  19.052   0.024   0.258 -0.3582  0.0672  0.6431
  890UDC     C4 9783  18.949  -0.057   0.344  0.1613 -0.8733  0.9688
  890UDC     C5 9784  18.830  -0.117   0.269  0.3032  0.7490  0.6516
  890UDC     C6 9785  18.746  -0.222   0.352 -0.5054 -0.5045 -0.3366
  890UDC     C7 9786  18.632  -0.263   0.256  0.2857  0.8183 -0.0179
  890UDC     C8 9787  18.553  -0.395   0.291  0.8453  0.3586 -0.2468
  890UDC     C9 9788  18.414  -0.416   0.225  0.5910  0.6263  0.1855
  890UDC    C10 9789  18.326  -0.296   0.230 -0.0581  1.0343  0.8000
  890UDC    C11 9790  18.219  -0.307   0.118 -0.6008  2.6993 -0.0376
  891UDC     C1 9791   8.945  19.622   9.192  0.1255  0.3870 -0.0779
  891UDC     C2 9792   9.060  19.711   9.154 -0.2987 -0.5562  0.6515
  891UDC     C3 9793   9.018  19.846   9.090 -0.2091  0.6545  0.0932
  891UDC     C4 9794   9.113  19.962   9.131  0.2866 -0.4761 -0.7552
  891UDC     C5 9795   9.258  19.926   9.156 -0.2802  0.0137 -0.8811
  891UDC     C6 9796   9.341  20.031   9.238 -0.1791  0.8204  0.2366
  891UDC     C7 9797   9.286  20.076   9.372  0.1342  0.0382 -0.9712
  891UDC     C8 9798   9.383  20.182   9.437 -0.2957  0.5405  0.6895
  891UDC     C9 9799   9.366  20.195   9.581 -0.5858 -0.3000 -0.8577
  891UDC    C10 9800   9.409  20.071   9.664  0.0373  0.2767  0.1755
  891UDC    C11 9801   9.551  20.007   9.646  0.4673 -0.4239  0.4466
  892UDC     C1 9802   1.064   7.910  14.947 -0.7058  0.4473 -0.7693
  892UDC     C2 9803   0.985   8.032  14.997  0.4304  0.5463 -0.1987
  892UDC     C3 9804   0.850   8.002  15.061 -0.6426 -0.1090 -0.0551
  892UDC     C4 9805   0.739   8.085  15.003 -0.4159  0.0354 -1.2246
  892UDC     C5 9806   0.773   8.234  14.999 -0.0887  0.8343  0.0742
  892UDC     C6 9807   0.648   8.312  15.025  0.5472 -0.1516 -0.4705
  892UDC     C7 9808   0.663   8.465  15.020  0.3668  1.0883 -0.4027
  892UDC     C8 9809   0.573   8.557  15.105  0.2295 -0.2431 -0.4283
  892UDC     C9 9810   0.620   8.701  15.129 -0.5670 -0.7894  0.2497
  892UDC    C10 9811   0.514   8.801  15.176  0.0945  0.3593 -0.0984
  892UDC    C11 9812   0.475   8.892  15.053 -0.4762 -0.4397 -0.7164
  893UDC     C1 9813   6.891   1.267   6.506  0.3331 -0.4846  0.2791
  893UDC     C2 9814   6.981   1.330   6.395  0.4190 -0.3435 -0.2984
  893UDC     C3 9815   7.036   1.235   6.291 -0.2903  0.2049  1.2125
  893UDC     C4 9816   7.150   1.304   6.215 -0.1722  0.3076  1.1249
  893UDC     C5 9817   7.240   1.218   6.124  1.1817 -0.6831 -0.3823
  893UDC     C6 9818   7.165   1.129   6.024 -1.4363  0.5013 -0.2151
  893UDC     C7 9819   7.269   1.036   5.954 -1.0906 -0.3392 -1.1905
  893UDC     C8 9820   7.347   0.954   6.059  0.0902 -0.1568 -0.2561
  893UDC     C9 9821   7.445   0.853   5.997 -0.6322  0.0830  0.6609
  893UDC    C10 9822   7.568   0.909   5.914  0.3878  0.0476 -0.1364
  893UDC    C11 9823   7.650   0.799   5.856  0.7179 -0.6801  0.2898
  894UDC     C1 9824  11.364   9.665   2.218  0.4854 -1.0051 -0.4771
  894UDC     C2 9825  11.459   9.641   2.334 -0.5615  0.0562 -0.2542
  894UDC     C3 9826  11.545   9.509   2.318 -0.1392 -0.3914 -0.7552
  894UDC     C4 9827  11.689   9.533   2.359  0.1561 -0.1532  0.9125
  894UDC     C5 9828  11.795   9.441   2.300 -0.4892 -0.5236 -0.4068
  894UDC     C6 9829  11.933   9.463   2.354 -0.5096 -0.9687 -0.9243
  894UDC     C7 9830  12.019   9.463   2.226 -0.4452  0.2654 -0.6748
  894UDC     C8 9831  11.983   9.575   2.124 -0.1630  0.6339 -0.4444
  894UDC     C9 9832  11.998   9.724   2.167 -0.5515 -0.7911  0.4786
  894UDC    C10 9833  11.974   9.808   2.041 -1.0307  0.4072  0.8027
  894UDC    C11 9834  11.846   9.783   1.972 -0.8763 -0.4878 -0.6060
  895UDC     C1 9835  18.035   8.971   7.850 -0.1051 -0.8269 -0.5202
  895UDC     C2 9836  17.993   8.949   7.706 -0.9505 -1.3023 -0.5879
  895UDC     C3 9837  17.866   9.021   7.654 -1.1687  0.1605  0.9520
  895UDC     C4 9838  17.829   9.162   7.704  0.1465  0.7805  0.4902
  895UDC     C5 9839  17.690   9.205   7.652 -0.7935  0.8302  0.9491
  895UDC     C6 9840  17.579   9.100   7.673 -0.1756 -0.1250 -0.0182
  895UDC     C7 9841  17.430   9.122   7.651  1.1779 -0.0966 -0.3358
  895UDC     C8 9842  17.356   8.989   7.657  0.7350 -0.5695 -0.0013
  895UDC     C9 9843  17.226   8.990   7.577  0.1820 -0.0067 -0.2844
  895UDC    C10 9844  17.181   8.846   7.560  0.6968  0.3881  0.3202
  895UDC    C11 9845  17.079   8.867   7.449 -0.6955  0.9983  0.2929
  896UDC     C1 9846  18.023  11.762  11.789  0.2434 -0.1508  0.5438
  896UDC     C2 9847  17.990  11.641  11.707 -0.0735  0.6819  0.6867
  896UDC     C3 9848  17.853  11.656  11.640  0.0570  0.9514  0.2396
  896UDC     C4 9849  17.842  11.737  11.502 -0.2916 -0.8909 -0.0642
  896UDC     C5 9850  17.709  11.817  11.469  0.6744 -0.7818 -0.1523
  896UDC     C6 9851  17.580  11.725  11.466  0.2596  0.2815 -0.2771
  896UDC     C7 9852  17.456  11.801  11.416 -0.5702 -0.1181 -0.0631
  896UDC     C8 9853  17.322  11.754  11.471  0.7226  0.0724 -0.2926
  896UDC     C9 9854  17.188  11.808  11.410  0.8528  0.5043  0.0108
  896UDC    C10 9855  17.239  11.905  11.305 -0.8761  0.0865  0.5472
  896UDC    C11 9856  17.150  11.958  11.185 -0.4494  0.1804  0.3785
  897UDC     C1 9857  17.558   6.459   4.628  1.4062  0.4015 -0.2539
  897UDC     C2 9858  17.497   6.363   4.734 -0.0271 -0.4512 -1.8370
  897UDC     C3 9859  17.466   6.447   4.867  0.5829 -0.1804 -0.3886
  897UDC     C4 9860  17.430   6.361   4.987 -0.0053  0.8103  0.2587
  897UDC     C5 9861  17.529   6.302   5.087 -0.1111  0.0335 -0.1204
  897UDC     C6 9862  17.593   6.427   5.148  0.3275 -0.0433 -0.0655
  897UDC     C7 9863  17.683   6.397   5.273 -0.0991  0.7004 -0.5016
  897UDC     C8 9864  17.716   6.518   5.360 -0.8966 -0.1998  0.9666
  897UDC     C9 9865  17.601   6.600   5.425 -1.0276 -0.8024  1.0913
  897UDC    C10 9866  17.658   6.711   5.520 -0.7548  0.7601  0.4472
  897UDC    C11 9867  17.774   6.664   5.609 -0.1615 -0.1953 -0.4592
  898UDC     C1 9868  10.738  14.150  15.982  0.3769 -0.2277 -0.2397
  898UDC     C2 9869  10.671  14.252  15.881  0.6599 -0.3800  0.4576
  898UDC     C3 9870  10.553  14.199  15.794 -0.5266 -0.7920  0.1948
  898UDC     C4 9871  10.598  14.089  15.695 -0.1713  0.6251 -0.3554
  898UDC     C5 9872  10.479  14.046  15.606 -0.8507 -0.3397 -1.3590
  898UDC     C6 9873  10.520  13.968  15.480  0.3084  0.5582  0.0007
  898UDC     C7 9874  10.388  13.914  15.413  0.1235 -0.2946  0.6993
  898UDC     C8 9875  10.408  13.763  15.371 -0.1497 -0.3349  0.1634
  898UDC     C9 9876  10.476  13.741  15.230  0.5635  0.0307  0.0158
  898UDC    C10 9877  10.525  13.596  15.219 -0.3926 -0.1435  0.2257
  898UDC    C11 9878  10.663  13.585  15.287  0.6359 -0.8281  0.9719
  899UDC     C1 9879   0.501  16.036  14.060  0.2990  0.0762 -0.1257
  899UDC     C2 9880   0.378  16.058  14.148 -0.0002 -1.2018 -0.9784
  899UDC     C3 9881   0.267  15.964  14.108  0.1194  0.2874 -0.8759
  899UDC     C4 9882   0.141  15.999  14.193  0.8081 -0.4250 -0.6197
  899UDC     C5 9883   0.081  16.119  14.125 -0.0095  0.7511  0.5556
  899UDC     C6 9884  -0.074  16.122  14.107  0.2895  0.0248 -0.0977
  899UDC     C7 9885  -0.167  16.163  14.226 -0.9784  0.3349  0.0155
  899UDC     C8 9886  -0.296  16.223  14.184 -0.8786  0.8731  0.1788
  899UDC     C9 9887  -0.401  16.201  14.292 -0.0569  0.3455 -0.9613
  899UDC    C10 9888  -0.396  16.318  14.391  0.6674  0.5783 -0.1652
  899UDC    C11 9889  -0.483  16.261  14.495  0.2563  0.3400  0.7052
  900UDC     C1 9890   5.616  14.380  17.961 -0.9371  0.6269  0.0161
  900UDC     C2 9891   5.623  14.496  18.054 -0.0679  0.3368  0.4876
  900UDC     C3 9892   5.761  14.560  18.090  0.0640 -0.2877 -0.8781
  900UDC     C4 9893   5.866  14.494  18.176  0.6027  0.2797 -0.8693
  900UDC     C5 9894   5.943  14.361  18.149 -0.0290 -0.2232  0.0243
  900UDC     C6 9895   6.065  14.322  18.243 -0.3820 -0.8455  0.1125
  900UDC     C7 9896   6.132  14.202  18.186 -0.4740  0.1831 -0.2689
  900UDC     C8 9897   6.265  14.166  18.250  0.1786  0.3480  0.4455
  900UDC     C9 9898   6.319  14.022  18.229 -0.1996  0.2108 -0.3924
  900UDC    C10 9899   6.271  13.924  18.332 -1.2150  0.3489 -0.0514
  900UDC    C11 9900   6.337  13.787  18.310  0.8994 -0.1260 -0.2646
  901UDC     C1 9901  15.811   5.114   2.719  0.3707 -0.0102 -0.0930
  901UDC     C2 9902  15.832   5.102   2.569 -0.4290  0.2117 -0.6277
  901UDC     C3 9903  15.971   5.049   2.524 -0.7672 -0.0335  0.5379
  901UDC     C4 9904  16.033   4.972   2.639  0.9916 -0.2976  0.3604
  901UDC     C5 9905  16.179   4.932   2.610  0.9770  0.3931 -0.0931
  901UDC     C6 9906  16.291   5.035   2.602 -0.2185  0.2512  0.8047
  901UDC     C7 9907  16.315   5.144   2.708  0.5410  0.1714  0.5846
  901UDC     C8 9908  16.401   5.114   2.833  0.3014  0.1313 -0.4893
  901UDC     C9 9909  16.337   5.145   2.969  0.3361 -1.3246 -0.6762
  901UDC    C10 9910  16.291   5.297   2.970 -0.7762  0.3360 -0.1510
  901UDC    C11 9911  16.173   5.320   3.070  0.3080 -0.2545  0.2488
  902UDC     C1 9912  12.120   8.045  15.377  0.1600 -0.8822 -0.1546
  902UDC     C2 9913  12.038   7.911  15.365  0.3669  0.0513 -0.1874
  902UDC     C3 9914  11.942   7.887  15.247 -0.0060 -0.2136  0.0563
  902UDC     C4 9915  11.910   7.741  15.208 -0.0002  0.3967 -0.1568
  902UDC     C5 9916  11.821   7.719  15.084  0.5637  0.8048 -0.3552
  902UDC     C6 9917  11.706   7.616  15.090 -0.3961 -0.3648  0.3422
  902UDC     C7 9918  11.738   7.468  15.061  0.9569  0.2844 -0.3420
  902UDC     C8 9919  11.627   7.360  15.042  0.5144 -0.7331 -0.5507
  902UDC     C9 9920  11.669   7.225  15.102  0.2560  0.8988  0.0500
  902UDC    C10 9921  11.557   7.138  15.156  0.1866 -0.5802  0.0549
  902UDC    C11 9922  11.434   7.141  15.058 -1.0408  0.3881  0.2118
  903UDC     C1 9923   5.524   7.311   3.712 -0.3463 -0.1636  1.1091
  903UDC     C2 9924   5.520   7.357   3.851 -0.2483 -0.6461  0.2921
  903UDC     C3 9925   5.419   7.283   3.942  0.0583 -0.4061 -0.6810
  903UDC     C4 9926   5.308   7.376   4.003 -0.0949  0.7385  0.6848
  903UDC     C5 9927   5.370   7.470   4.102 -0.0214  0.2299 -1.0308
  903UDC     C6 9928   5.429   7.395   4.221 -0.3933  0.9075  0.6319
  903UDC     C7 9929   5.497   7.490   4.321  0.0326  0.7012 -0.5530
  903UDC     C8 9930   5.613   7.583   4.262 -0.1494  0.4924 -0.7004
  903UDC     C9 9931   5.685   7.686   4.349 -0.2779  0.2710  0.3959
  903UDC    C10 9932   5.782   7.769   4.262  0.7731 -1.4975  0.1236
  903UDC    C11 9933   5.849   7.683   4.162  0.5032  0.7264  0.8653
  904UDC     C1 9934  15.727   6.663  15.389  0.4854 -0.6318 -0.1159
  904UDC     C2 9935  15.754   6.682  15.233  0.2088  0.8421 -0.4557
  904UDC     C3 9936  15.639   6.638  15.134 -0.0846  0.5427 -0.7590
  904UDC     C4 9937  15.679   6.677  14.993 -0.2067 -0.8816 -0.1777
  904UDC     C5 9938  15.694   6.835  14.972  0.9716  0.4887 -0.6595
  904UDC     C6 9939  15.761   6.863  14.837  0.0682  0.3646  0.1758
  904UDC     C7 9940  15.803   7.012  14.824 -0.4097  0.4416 -0.4202
  904UDC     C8 9941  15.876   7.062  14.696 -0.0625  0.0691 -0.4970
  904UDC     C9 9942  15.928   7.210  14.712  0.3161 -0.0507 -0.0262
  904UDC    C10 9943  16.004   7.242  14.845 -0.7805  0.2194  0.7453
  904UDC    C11 9944  15.981   7.379  14.900  0.6033 -0.4128  0.4736
  905UDC     C1 9945   0.667   0.490   7.316  0.5721  0.3755  0.5471
  905UDC     C2 9946   0.552   0.380   7.293 -0.8047 -0.9702 -0.8346
  905UDC     C3 9947   0.417   0.440   7.240 -0.3395  0.1042 -1.6199
  905UDC     C4 9948   0.332   0.328   7.178  1.1541  0.2214  0.1369
  905UDC     C5 9949   0.255   0.241   7.284 -0.4369 -0.1121 -0.2898
  905UDC     C6 9950   0.317   0.103   7.312  0.3004  0.5576  0.6773
  905UDC     C7 9951   0.243  -0.018   7.262 -0.0147  1.0199 -0.1836
  905UDC     C8 9952   0.303  -0.152   7.319 -0.4028 -0.0289 -0.3535
  905UDC     C9 9953   0.226  -0.275   7.268 -0.3578  0.0967 -0.2398
  905UDC    C10 9954   0.265  -0.394   7.359  0.2095 -1.7088  0.0433
  905UDC    C11 9955   0.355  -0.489   7.287 -0.2409 -0.6516  0.7577
  906UDC     C1 9956   2.193   4.200   4.680 -0.9142  0.0527  0.1358
  906UDC     C2 9957   2.056   4.232   4.736  0.7514  0.2321  0.0740
  906UDC     C3 9958   2.013   4.364   4.680  1.1369 -0.3339 -0.3499
  906UDC     C4 9959   1.880   4.421   4.741 -0.6010  0.4209 -0.8411
  906UDC     C5 9960   1.840   4.523   4.633  0.5111 -0.6280 -0.3717
  906UDC     C6 9961   1.931   4.651   4.638 -0.6164 -0.2247  0.7113
  906UDC     C7 9962   1.913   4.698   4.782 -0.7709 -0.0024 -0.1795
  906UDC     C8 9963   1.815   4.812   4.795 -0.5315 -0.8484  0.2216
  906UDC     C9 9964   1.876   4.944   4.748 -0.2921 -0.6365 -0.4116
  906UDC    C10 9965   1.805   5.065   4.812  0.9188  0.9863  0.7599
  906UDC    C11 9966   1.835   5.116   4.949 -0.0915 -0.0510 -1.1013
  907UDC     C1 9967  15.342   8.436  17.602 -0.0699  0.8002 -0.2888
  907UDC     C2 9968  15.473   8.521  17.601  1.0437  0.6999  0.0728
  907UDC     C3 9969  15.587   8.472  17.508 -0.6079  0.7568 -0.8630
  907UDC     C4 9970  15.724   8.535  17.529 -0.0841 -0.3130 -0.2298
  907UDC     C5 9971  15.763   8.650  17.449 -0.1131 -0.3419  0.4967
  907UDC     C6 9972  15.765   8.619  17.301 -1.0384 -0.3813  0.2187
  907UDC     C7 9973  15.809   8.734  17.209  0.5563 -0.1930  0.1590
  907UDC     C8 9974  15.794   8.697  17.058 -0.5975 -0.9125 -0.2461
  907UDC     C9 9975  15.823   8.824  16.972 -0.8627 -1.7429  0.0564
  907UDC    C10 9976  15.839   8.768  16.829 -1.0240 -0.1124 -1.3063
  907UDC    C11 9977  15.924   8.637  16.816  0.0587 -0.5257 -0.7708
  908UDC     C1 9978  18.281  11.905  13.994  0.8430  0.9105  0.5727
  908UDC     C2 9979  18.322  11.889  14.140 -0.2136 -0.2188  0.1616
  908UDC     C3 9980  18.199  11.878  14.232 -0.7800 -0.0523 -0.3442
  908UDC     C4 9981  18.231  11.877  14.386 -2.3607 -0.9858 -0.1422
  908UDC     C5 9982  18.136  11.911  14.498  0.1194  1.3740 -0.0039
  908UDC     C6 9983  18.187  11.896  14.640 -0.0605  0.4757  0.1249
  908UDC     C7 9984  18.055  11.899  14.722 -0.9950  0.3668 -0.1282
  908UDC     C8 9985  18.070  11.876  14.873 -0.5909 -0.5575 -0.6524
  908UDC     C9 9986  18.094  11.725  14.909 -0.2337  0.2682 -1.1897
  908UDC    C10 9987  18.007  11.609  14.863  0.3960 -0.4022 -1.0397
  908UDC    C11 9988  17.862  11.638  14.902 -0.3018 -0.2540 -0.0559
  909UDC     C1 9989  10.935   7.085   3.932  0.7266 -0.3350  0.3764
  909UDC     C2 9990  10.802   7.165   3.961  0.2034  0.1332 -0.9088
  909UDC     C3 9991  10.810   7.301   4.041 -0.7540 -0.4294  0.3500
  909UDC     C4 9992  10.669   7.374   4.033 -0.7065  0.2597 -0.7847
  909UDC     C5 9993  10.556   7.267   4.034  0.0174  0.0219 -0.5297
  909UDC     C6 9994  10.412   7.321   4.038  0.2331  0.8180 -0.2930
  909UDC     C7 9995  10.394   7.418   3.928 -0.1552  1.1997 -0.0904
  909UDC     C8 9996  10.280   7.514   3.957  0.0270  0.3703 -0.7616
  909UDC     C9 9997  10.320   7.643   4.021 -0.9094  0.4739 -0.8664
  909UDC    C10 9998  10.214   7.747   4.047 -0.0735  0.3432 -0.6298
  909UDC    C11 9999  10.088   7.695   4.123  0.0916  0.3932 -0.4494
  910UDC     C110000   9.986  10.954  12.737 -0.2412  0.5423  0.9981
  910UDC     C210001  10.074  10.829  12.739  0.7376 -0.2236 -0.6941
  910UDC     C310002  10.187  10.820  12.644  0.3041  0.2348 -0.9167
  910UDC     C410003  10.265  10.678  12.653 -0.2667 -0.8878 -0.4223
  910UDC     C510004  10.394  10.650  12.576  0.2054  0.3169  0.2755
  910UDC     C610005  10.444  10.512  12.621  0.5634 -1.0966  0.7195
  910UDC     C710006  10.584  10.478  12.572  0.4088 -0.4266 -1.0389
  910UDC     C810007  10.689  10.515  12.684 -0.5311  0.3404  0.3658
  910UDC     C910008  10.834  10.461  12.678  0.4394  0.1872  0.1573
  910UDC    C1010009  10.912  10.541  12.579 -0.1457 -1.0564 -0.4533
  910UDC    C1110010  11.046  10.592  12.627 -0.3284  0.2003 -0.8968
  911UDC     C110011   4.285  15.562   7.653  0.0560 -0.4305 -0.4732
  911UDC     C210012   4.137  15.535   7.637  0.1122  0.6403 -0.3818
  911UDC     C310013   4.118  15.380   7.606  1.1101 -0.3135 -0.4649
  911UDC     C410014   3.973  15.342   7.578  0.3329 -0.5065 -0.8435
  911UDC     C510015   3.935  15.214   7.505 -1.1574 -0.1041 -0.4832
  911UDC     C610016   3.785  15.194   7.488  0.4637 -0.6956 -0.3005
  911UDC     C710017   3.690  15.232   7.603 -0.8933  0.4006  0.1060
  911UDC     C810018   3.713  15.154   7.732 -0.3647 -0.7463 -0.8768
  911UDC     C910019   3.609  15.041   7.754  0.6396 -0.8535 -1.4967
  911UDC    C1010020   3.474  15.098   7.811  0.5850  0.1929  0.5119
  911UDC    C1110021   3.364  15.147   7.715  0.6983 -0.2736  0.8857
  912UDC     C110022   1.205   2.510   0.545  0.1704  0.0064  0.3090
  912UDC     C210023   1.130   2.636   0.514  1.2737  0.7355 -0.3598
  912UDC     C310024   1.089   2.718   0.636  0.0745 -0.3849  0.0902
  912UDC     C410025   1.020   2.627   0.743 -0.3165  0.4071  0.1535
  912UDC     C510026   0.968   2.709   0.857  0.1927 -1.3032  0.5093
  912UDC     C610027   0.844   2.782   0.808  0.7369 -0.5176  0.0881
  912UDC     C710028   0.729   2.707   0.740 -0.7621  0.3260  0.5411
  912UDC     C810029   0.616   2.801   0.681 -0.1542  0.2189 -0.2245
  912UDC     C910030   0.508   2.703   0.628 -0.9593 -0.3071  0.0826
  912UDC    C1010031   0.400   2.796   0.576  0.0683  0.7435  0.5755
  912UDC    C1110032   0.259   2.736   0.587 -1.0572 -0.0895 -0.0001
  913UDC     C110033   3.831   9.818  12.805  0.1420 -0.3571 -0.8049
  913UDC     C210034   3.744   9.780  12.932  0.5012 -0.0363  1.1810
  913UDC     C310035   3.786   9.638  12.988  1.7222 -0.9904 -0.1461
  913UDC     C410036   3.701   9.593  13.114  0.9537  0.3072  0.7580
  913UDC     C510037   3.773   9.582  13.249 -0.1484 -0.7511  1.2156
  913UDC     C610038   3.839   9.723  13.281  0.2985 -1.0439  0.5642
  913UDC     C710039   3.768   9.764  13.413  0.2412  0.3746  0.2101
  913UDC     C810040   3.840   9.874  13.487  1.0842  0.4739 -0.5539
  913UDC     C910041   3.965   9.817  13.565 -0.7660  0.1753 -0.6627
  913UDC    C1010042   3.960   9.710  13.674  0.4493  0.0304  0.1048
  913UDC    C1110043   3.851   9.716  13.786  0.5328 -0.9283 -0.5294
  914UDC     C110044  15.327   4.335   6.129  0.1765 -0.6391 -0.1221
  914UDC     C210045  15.319   4.476   6.199  0.0823 -0.4501 -0.2228
  914UDC     C310046  15.400   4.455   6.324 -0.4530  0.5202 -0.5043
  914UDC     C410047  15.540   4.410   6.274  0.0432  0.0938 -0.3651
  914UDC     C510048  15.604   4.363   6.408  0.2349  0.5775 -0.3049
  914UDC     C610049  15.739   4.288   6.374  0.6054 -1.2029  0.5967
  914UDC     C710050  15.853   4.350   6.445  0.5830  0.1051  0.5214
  914UDC     C810051  15.955   4.245   6.492  0.2898  0.7418  0.5632
  914UDC     C910052  15.927   4.168   6.627 -1.1941 -0.3031  0.5309
  914UDC    C1010053  16.063   4.124   6.681 -0.6446  0.1226 -0.6847
  914UDC    C1110054  16.026   4.049   6.812  0.3666  0.8031 -0.1365
  915UDC     C110055   1.971  18.762   7.252 -0.1556 -0.4380 -0.2774
  915UDC     C210056   1.821  18.770   7.236 -0.4594 -0.0046  0.7071
  915UDC     C310057   1.773  18.839   7.364  0.0304  1.3249  0.0176
  915UDC     C410058   1.621  18.842   7.370  0.2007 -0.4144 -0.1111
  915UDC     C510059   1.560  18.896   7.505  0.1755  0.1598  0.0704
  915UDC     C610060   1.607  19.021   7.568  0.8142  0.5182 -0.0926
  915UDC     C710061   1.524  19.042   7.698 -0.1169 -1.2722  0.6370
  915UDC     C810062   1.595  19.126   7.807 -0.3225 -0.1093 -0.2225
  915UDC     C910063   1.525  19.117   7.945  0.0508  0.1448  0.6441
  915UDC    C1010064   1.371  19.107   7.919 -0.8474  0.3343  0.0029
  915UDC    C1110065   1.311  19.065   8.052 -0.1107  0.6876 -0.5398
  916UDC     C110066  19.085   3.054   8.661 -0.8251  0.4138 -0.0450
  916UDC     C210067  19.176   2.927   8.694 -0.6457  0.1681  0.2607
  916UDC     C310068  19.315   2.961   8.746  0.6734 -0.8426  0.1427
  916UDC     C410069  19.391   2.842   8.802 -1.5356  0.1598 -0.3516
  916UDC     C510070  19.523   2.893   8.871 -0.3548  0.0335  0.0134
  916UDC     C610071  19.635   2.893   8.766  0.8582 -0.2150  0.2357
  916UDC     C710072  19.764   2.917   8.849  0.3121  0.6886  0.0886
  916UDC     C810073  19.780   2.820   8.963  1.0230 -0.0607  0.1918
  916UDC     C910074  19.909   2.834   9.045 -0.7675  1.2736  0.2180
  916UDC    C1010075  19.950   2.715   9.132 -0.0687 -0.2088 -0.7671
  916UDC    C1110076  19.977   2.580   9.061 -0.4750 -0.3048 -0.5252
  917UDC     C110077  18.432  15.852   9.293 -0.1724 -0.8385 -0.6897
  917UDC     C210078  18.466  15.706   9.307 -0.5312 -0.7486  0.1818
  917UDC     C310079  18.364  15.619   9.233  0.2236  0.5448  0.9501
  917UDC     C410080  18.278  15.545   9.337 -1.1368 -1.6937 -0.5472
  917UDC     C510081  18.143  15.495   9.281  0.3593 -0.3449 -0.8326
  917UDC     C610082  18.034  15.463   9.389  0.9022  0.2979  0.6758
  917UDC     C710083  17.925  15.396   9.315  0.8559  1.2988  0.3835
  917UDC     C810084  17.923  15.239   9.308  0.2203  0.2403 -0.6772
  917UDC     C910085  17.802  15.184   9.235 -0.8718  0.3775  0.3968
  917UDC    C1010086  17.832  15.047   9.177  0.1363  0.6276 -0.4046
  917UDC    C1110087  17.851  15.054   9.025  0.0146  1.3134 -0.4736
  918UDC     C110088   8.352  17.384   9.266  1.2774 -0.9581  0.4967
  918UDC     C210089   8.389  17.523   9.213  0.3963 -1.1372  1.1199
  918UDC     C310090   8.467  17.541   9.089 -1.1757  0.3253  0.7076
  918UDC     C410091   8.521  17.685   9.067  0.1238 -0.3034  0.0810
  918UDC     C510092   8.656  17.684   9.002 -0.7274 -0.2130  0.3545
  918UDC     C610093   8.769  17.614   9.085  0.2573 -0.2162  0.1097
  918UDC     C710094   8.904  17.578   9.019  0.5278  0.1716  0.2129
  918UDC     C810095   9.014  17.506   9.091 -0.2670  0.1439 -0.6458
  918UDC     C910096   9.006  17.353   9.113  0.8487  1.3265  0.1668
  918UDC    C1010097   9.142  17.313   9.161 -1.5092  0.2420  0.8215
  918UDC    C1110098   9.186  17.172   9.193 -0.4637  1.3070 -0.4527
  919UDC     C110099  11.624   5.152  12.422  0.0232  0.6433 -0.4112
  919UDC     C210100  11.649   5.295  12.390 -0.5356  0.6755  0.5355
  919UDC     C310101  11.565   5.359  12.276 -0.3675  0.2158 -0.2273
  919UDC     C410102  11.425   5.383  12.325 -0.0083  0.2380  0.1107
  919UDC     C510103  11.333   5.384  12.207  0.4386  0.7694 -0.5846
  919UDC     C610104  11.198   5.416  12.260  0.7631 -0.4037  0.2329
  919UDC     C710105  11.168   5.348  12.389 -0.4708  0.1707 -0.0169
  919UDC     C810106  11.026   5.348  12.436  0.5925 -0.9806  0.3645
  919UDC     C910107  11.013   5.311  12.583  0.5968 -0.1064 -0.2826
  919UDC    C1010108  11.122   5.387  12.666  0.1425  0.8036  0.3087
  919UDC    C1110109  11.116   5.398  12.819 -0.2156 -0.3575  0.6536
  920UDC     C110110   5.337  11.943  19.801 -0.8493  0.4672  0.0977
  920UDC     C210111   5.312  11.922  19.952 -0.7134 -0.3463  0.1892
  920UDC     C310112   5.188  11.842  19.996  0.3995 -0.1951  0.1396
  920UDC     C410113   5.191  11.707  19.928  0.4767  0.3715 -0.7221
  920UDC     C510114   5.080  11.610  19.912  0.5345  0.2337  0.1424
  920UDC     C610115   5.081  11.484  20.004 -0.1987  0.2551  0.0926
  920UDC     C710116   5.203  11.389  19.967 -0.9491 -0.5926 -0.3285
  920UDC     C810117   5.266  11.307  20.080 -0.6648 -1.8564 -0.7970
  920UDC     C910118   5.361  11.386  20.178  0.3777 -1.3347 -0.4563
  920UDC    C1010119   5.501  11.436  20.141 -0.7791 -0.0539 -1.1263
  920UDC    C1110120   5.499  11.508  20.012  0.3786 -0.2127  0.8662
  921UDC     C110121  16.970  13.906  19.054  0.0040  0.2087 -0.0260
  921UDC     C210122  16.864  13.812  19.008  0.6136 -0.3504  0.3411
  921UDC     C310123  16.857  13.827  18.852 -0.1419 -0.3941  0.6170
  921UDC     C410124  16.735  13.760  18.778 -0.0155 -1.2257  1.0985
  921UDC     C510125  16.700  13.846  18.651  0.3392  0.0593 -0.3649
  921UDC     C610126  16.564  13.822  18.599  0.2001 -0.6702 -0.2033
  921UDC     C710127  16.452  13.902  18.675 -0.3534  0.5508 -0.6536
  921UDC     C810128  16.310  13.858  18.614  1.0499 -0.5449 -0.2678
  921UDC     C910129  16.190  13.889  18.702  0.3257 -0.8381 -1.1025
  921UDC    C1010130  16.053  13.834  18.660 -0.2569 -0.7420 -0.1474
  921UDC    C1110131  15.940  13.913  18.726 -0.2546 -0.3131 -0.4820
  922UDC     C110132  14.783   8.993   3.686 -0.0844 -0.0158  0.5013
  922UDC     C210133  14.836   8.955   3.824  0.5887  1.2744  0.0829
  922UDC     C310134  14.907   9.044   3.929  0.2754 -1.3459  0.3357
  922UDC     C410135  14.871   9.013   4.080  0.2478 -0.2389  0.6937
  922UDC     C510136  14.912   9.111   4.190 -0.0242  0.3917 -0.9581
  922UDC     C610137  15.066   9.098   4.221  0.1685 -1.2024  0.7809
  922UDC     C710138  15.131   9.198   4.315 -0.3447 -0.2598  0.5323
  922UDC     C810139  15.105   9.350   4.285  0.4081 -0.6784 -0.1333
  922UDC     C910140  15.158   9.440   4.401  0.0048  0.6309  0.1548
  922UDC    C1010141  15.088   9.435   4.545 -0.3089  0.1004  0.1970
  922UDC    C1110142  15.138   9.334   4.649  1.4353  0.2832  0.0063
  923UDC     C110143  16.164   0.949  19.984 -0.6050  0.7747 -0.3728
  923UDC     C210144  16.135   1.080  20.061  0.1280  0.2879 -0.3139
  923UDC     C310145  16.271   1.142  20.116  0.2443 -0.3306  1.1942
  923UDC     C410146  16.345   1.212  20.001 -0.0661  0.5537  0.4281
  923UDC     C510147  16.481   1.269  20.037 -1.1747 -0.1082  0.5290
  923UDC     C610148  16.475   1.398  20.125  0.6576  0.3357  0.8534
  923UDC     C710149  16.613   1.450  20.169  0.3859  0.1743  0.7394
  923UDC     C810150  16.598   1.555  20.280  0.4144 -0.3612 -0.1178
  923UDC     C910151  16.610   1.520  20.431 -0.0254 -0.2479 -0.5619
  923UDC    C1010152  16.625   1.626  20.541  0.9852 -0.2221  0.4166
  923UDC    C1110153  16.722   1.573  20.651  0.4425  0.2897 -0.1769
  924UDC     C110154   9.153   9.766  14.834 -0.4060  0.3164  0.1601
  924UDC     C210155   9.021   9.774  14.758 -0.2210 -0.5353  0.5584
  924UDC     C310156   8.912   9.681  14.812  0.0105  0.0918 -0.2148
  924UDC     C410157   8.777   9.690  14.746  0.8706 -0.5132 -0.1229
  924UDC     C510158   8.672   9.633  14.844  0.9544  0.5174  1.1542
  924UDC     C610159   8.524   9.652  14.782 -0.1241 -0.2497  1.1957
  924UDC     C710160   8.409   9.686  14.874  0.4798  0.5087  1.0482
  924UDC     C810161   8.375   9.594  14.992  1.0900 -0.2253 -0.8994
  924UDC     C910162   8.242   9.634  15.071  0.2142 -0.0700 -0.2194
  924UDC    C1010163   8.222   9.559  15.211 -1.4435 -0.2371  0.5065
  924UDC    C1110164   8.096   9.595  15.286  0.7587 -0.4613 -0.2996
  925UDC     C110165   5.368  17.173   9.008 -0.6005  0.1417  0.3112
  925UDC     C210166   5.418  17.122   9.149 -0.4027  0.2831  0.5669
  925UDC     C310167   5.318  17.117   9.260  0.1379 -0.7431  0.7850
  925UDC     C410168   5.351  17.033   9.389  0.1153 -0.2369  1.0182
  925UDC     C510169   5.477  17.051   9.474 -0.2222  1.1153 -0.5238
  925UDC     C610170   5.494  16.936   9.581 -1.1017 -0.6647 -0.2912
  925UDC     C710171   5.419  16.814   9.536  0.2408  0.8839 -0.4135
  925UDC     C810172   5.418  16.677   9.611  1.0994  0.0682 -0.8777
  925UDC     C910173   5.562  16.636   9.637  0.9377  1.0927  1.2392
  925UDC    C1010174   5.641  16.605   9.511 -0.3615 -0.0089 -0.0837
  925UDC    C1110175   5.787  16.554   9.534 -1.3764  0.4606  0.9363
  926UDC     C110176  16.396  13.165  17.182 -0.7466 -0.3620  0.3814
  926UDC     C210177  16.332  13.299  17.229 -0.9329 -0.6943  1.1979
  926UDC     C310178  16.226  13.304  17.333  0.0790 -0.4662 -0.2441
  926UDC     C410179  16.193  13.451  17.361  0.4382 -0.4712 -0.0559
  926UDC     C510180  16.325  13.526  17.396  0.4185 -0.3145  0.0202
  926UDC     C610181  16.309  13.671  17.442 -0.8381  0.0291  0.5143
  926UDC     C710182  16.204  13.756  17.365  0.2257 -0.9797 -0.2578
  926UDC     C810183  16.238  13.905  17.328 -0.1918 -0.8558  0.8723
  926UDC     C910184  16.133  13.986  17.253  1.0490 -0.7823  0.4538
  926UDC    C1010185  16.017  14.029  17.350  0.4387  0.1553 -1.1288
  926UDC    C1110186  16.055  14.113  17.473  0.4628  0.2713 -0.4327
  927UDC     C110187   0.957   6.712  18.538  0.1045 -0.4376 -0.8544
  927UDC     C210188   1.047   6.825  18.490  1.3541  0.1943  0.0848
  927UDC     C310189   1.142   6.760  18.403  0.0390  0.5915 -0.1081
  927UDC     C410190   1.210   6.646  18.489  0.4947  0.0625 -0.7908
  927UDC     C510191   1.369   6.662  18.490  0.6368 -1.1529 -0.6426
  927UDC     C610192   1.415   6.705  18.348  0.5800 -0.6701  0.0415
  927UDC     C710193   1.566   6.705  18.316 -0.3348 -0.5156  0.3534
  927UDC     C810194   1.603   6.800  18.197  0.4841  0.7895 -0.4873
  927UDC     C910195   1.534   6.932  18.204 -0.6487 -0.3876 -1.1177
  927UDC    C1010196   1.627   7.053  18.223 -0.4702 -0.3209 -0.1927
  927UDC    C1110197   1.547   7.181  18.247 -0.0417 -0.2284  0.4550
  928UDC     C110198   9.698  16.674   4.267  0.3041  0.7822 -0.9160
  928UDC     C210199   9.753  16.704   4.119  1.1275  0.0475  0.1467
  928UDC     C310200   9.777  16.583   4.027 -0.6274  0.4556  1.0387
  928UDC     C410201   9.836  16.606   3.883  0.6113  0.2891  0.5172
  928UDC     C510202   9.835  16.489   3.779 -0.2439  0.0933  0.4217
  928UDC     C610203   9.710  16.504   3.691  0.5243  0.8967 -0.6562
  928UDC     C710204   9.704  16.356   3.626  0.4622 -0.9034 -0.6321
  928UDC     C810205   9.575  16.296   3.572 -1.3016  0.4822 -1.1255
  928UDC     C910206   9.578  16.142   3.565  0.4116 -1.3836  0.3132
  928UDC    C1010207   9.576  16.080   3.711  0.7056  0.3246  0.3438
  928UDC    C1110208   9.621  15.938   3.705  0.0861  0.5759 -0.5274
  929UDC     C110209   5.837  12.101  11.362 -0.4685 -0.4851 -0.1828
  929UDC     C210210   5.943  11.996  11.408 -0.9223 -0.9240 -0.3504
  929UDC     C310211   6.067  12.082  11.446 -0.4572  0.4358 -1.5575
  929UDC     C410212   6.142  12.133  11.322 -0.7677  0.3228  0.5167
  929UDC     C510213   6.256  12.234  11.362  1.0484  1.3086  0.2910
  929UDC     C610214   6.369  12.260  11.259 -0.2807 -0.1251 -0.8162
  929UDC     C710215   6.424  12.397  11.261 -0.4244  0.0683  0.3560
  929UDC     C810216   6.572  12.423  11.300  0.0162  0.4311  1.0813
  929UDC     C910217   6.599  12.568  11.264 -0.9803 -0.3063 -0.7455
  929UDC    C1010218   6.744  12.590  11.275  0.4465  0.7974 -0.3363
  929UDC    C1110219   6.793  12.716  11.343  0.9562 -0.0943 -0.1775
  930UDC     C110220  14.059  16.005  12.626 -0.5213 -0.8631 -0.1360
  930UDC     C210221  13.977  16.015  12.754  0.5063  0.6089 -0.3567
  930UDC     C310222  14.039  15.954  12.882  0.4639  0.0108  0.2795
  930UDC     C410223  13.940  15.978  12.991 -0.0853 -0.3095  1.0749
  930UDC     C510224  13.977  15.911  13.127  0.4236  0.1250 -0.1506
  930UDC     C610225  13.855  15.884  13.227 -0.7903  0.0636  0.3305
  930UDC     C710226  13.798  15.737  13.217  0.6366  0.2506 -0.8955
  930UDC     C810227  13.737  15.705  13.361 -0.8649  0.6649 -0.4681
  930UDC     C910228  13.827  15.686  13.489 -0.9378 -0.4234 -0.2681
  930UDC    C1010229  13.866  15.528  13.503  0.1618 -1.2315 -0.3885
  930UDC    C1110230  14.002  15.495  13.579  0.2098  0.9431  0.6578
  931UDC     C110231   3.803   6.751   1.294  0.2449  0.1777  0.7585
  931UDC     C210232   3.666   6.784   1.367 -0.5159 -0.1879 -0.3464
  931UDC     C310233   3.677   6.857   1.503  0.0971 -1.8858  2.1022
  931UDC     C410234   3.776   6.799   1.603  1.6341 -0.2591 -0.3056
  931UDC     C510235   3.804   6.899   1.722 -0.3335 -0.7462  0.7739
  931UDC     C610236   3.680   6.916   1.797  0.6970  0.4433 -0.1999
  931UDC     C710237   3.606   6.792   1.859 -0.6351 -0.4231 -0.0911
  931UDC     C810238   3.462   6.816   1.886  0.9289 -0.9099  0.2408
  931UDC     C910239   3.435   6.931   1.981  0.7344 -0.8158  0.1838
  931UDC    C1010240   3.284   6.951   1.946  0.0322 -0.6195 -0.7667
  931UDC    C1110241   3.276   6.978   1.790  0.1571  0.1190  0.3477
  932UDC     C110242   1.168   4.419   4.155 -0.3670  1.1296 -0.9790
  932UDC     C210243   1.057   4.315   4.189  0.7040 -0.2073  0.4674
  932UDC     C310244   1.026   4.325   4.338 -0.2552  0.1410  0.0359
  932UDC     C410245   0.985   4.460   4.403 -0.0350  0.1872 -0.6667
  932UDC     C510246   0.982   4.458   4.557 -0.7275 -0.8819 -0.6233
  932UDC     C610247   1.004   4.597   4.630  0.5541 -0.1969 -0.1623
  932UDC     C710248   1.017   4.591   4.784  0.7495  0.3727  1.2678
  932UDC     C810249   1.048   4.721   4.858 -0.1528 -0.0449  0.9641
  932UDC     C910250   1.191   4.782   4.842  0.1933  0.4522  0.5250
  932UDC    C1010251   1.289   4.711   4.934 -0.5415 -0.0409 -0.2176
  932UDC    C1110252   1.437   4.752   4.966 -0.6959  1.1346  1.0337
  933UDC     C110253   9.226  15.253  16.444 -0.1986  0.4428 -0.8742
  933UDC     C210254   9.226  15.234  16.292  0.5388  0.9862  0.0692
  933UDC     C310255   9.120  15.136  16.245 -0.7299  0.7597  0.1278
  933UDC     C410256   9.119  14.998  16.305  0.4548  0.1094 -0.3862
  933UDC     C510257   9.102  14.888  16.203 -0.0075  0.9231 -0.3950
  933UDC     C610258   9.097  14.754  16.276 -0.5080  0.0329 -0.6781
  933UDC     C710259   9.071  14.639  16.186 -0.3033  0.3920  0.2000
  933UDC     C810260   9.201  14.567  16.128  0.6344  0.2212  0.3298
  933UDC     C910261   9.230  14.425  16.184 -0.3320 -0.4782 -0.9800
  933UDC    C1010262   9.121  14.326  16.140  0.9056  0.6175 -0.7641
  933UDC    C1110263   9.086  14.328  15.990 -0.1691 -0.1595 -0.6165
  934UDC     C110264  17.562  15.107   2.848 -0.1987 -0.4004  0.8660
  934UDC     C210265  17.458  14.994   2.821 -0.7683 -0.0568  0.0146
  934UDC     C310266  17.438  14.879   2.920 -0.7466  1.2566  0.1017
  934UDC     C410267  17.303  14.803   2.931 -0.0746  0.8563 -0.7246
  934UDC     C510268  17.299  14.691   2.828 -0.5459  1.0703 -0.0669
  934UDC     C610269  17.425  14.606   2.847 -0.2069  0.4005 -0.7857
  934UDC     C710270  17.480  14.557   2.710  0.1930  0.0004 -0.2810
  934UDC     C810271  17.595  14.456   2.727 -0.7383 -0.8188 -1.2617
  934UDC     C910272  17.659  14.404   2.590 -1.1608 -0.9078 -1.2335
  934UDC    C1010273  17.623  14.460   2.456 -0.3516  0.5950  1.3440
  934UDC    C1110274  17.675  14.381   2.332 -1.8157  0.6599 -0.2790
  935UDC     C110275   1.987   3.895   3.319 -0.1677  0.9304  0.1920
  935UDC     C210276   1.946   3.838   3.189  1.2643  0.4584  0.8964
  935UDC     C310277   1.798   3.858   3.154 -0.2942  0.4796 -0.2047
  935UDC     C410278   1.687   3.788   3.250 -0.3597 -0.7427  0.3379
  935UDC     C510279   1.544   3.780   3.191 -0.2242  0.3261  0.2687
  935UDC     C610280   1.414   3.720   3.249  0.5590  0.9484 -0.4213
  935UDC     C710281   1.294   3.817   3.232  0.4462  0.3370 -0.3153
  935UDC     C810282   1.326   3.895   3.106 -0.9830  0.3093  0.7490
  935UDC     C910283   1.233   4.017   3.100 -0.8698  0.6187  0.6204
  935UDC    C1010284   1.087   3.982   3.131  0.4533  0.4963 -0.9852
  935UDC    C1110285   0.980   4.094   3.133 -0.5072  0.6917  0.7970
  936UDC     C110286   2.784   4.534   9.722  0.9481  1.4826 -0.6388
  936UDC     C210287   2.851   4.565   9.853 -1.0246 -0.6840  0.0032
  936UDC     C310288   2.871   4.428   9.918  0.0970 -0.0698 -0.1000
  936UDC     C410289   2.911   4.423  10.070  0.6153 -0.5496  1.6818
  936UDC     C510290   2.918   4.285  10.140  0.0942 -0.4371 -0.1730
  936UDC     C610291   2.934   4.310  10.292  0.4846 -0.6019 -0.6188
  936UDC     C710292   3.062   4.392  10.319 -0.3331 -0.1410  0.6065
  936UDC     C810293   3.183   4.308  10.272  0.4061 -0.1547  0.7072
  936UDC     C910294   3.321   4.366  10.298 -0.2354  1.3764 -0.3441
  936UDC    C1010295   3.443   4.320  10.211  1.4662  0.7714  0.5236
  936UDC    C1110296   3.506   4.180  10.252  0.5717  0.5356 -0.1823
  937UDC     C110297   2.676  18.894   8.617  0.0126 -0.5769  0.9736
  937UDC     C210298   2.730  18.833   8.487 -0.3441 -0.7300 -0.3446
  937UDC     C310299   2.880  18.794   8.510 -1.0038  0.8740  0.4793
  937UDC     C410300   2.939  18.707   8.398 -1.1055 -0.0625  0.0972
  937UDC     C510301   3.071  18.647   8.457  0.7463 -0.4700 -0.0203
  937UDC     C610302   3.155  18.626   8.334  0.6708 -0.2636 -0.0135
  937UDC     C710303   3.278  18.716   8.329  1.1658 -0.3256  0.5583
  937UDC     C810304   3.371  18.677   8.451 -0.3428 -0.4728  1.1337
  937UDC     C910305   3.402  18.528   8.445  0.1702 -0.9067 -0.2387
  937UDC    C1010306   3.493  18.488   8.563  0.6244 -0.3259 -0.4573
  937UDC    C1110307   3.495  18.337   8.562 -0.2926  1.0478 -0.4532
  938UDC     C110308  12.575   3.807  18.434 -0.6286  0.2722  0.7403
  938UDC     C210309  12.619   3.943  18.491 -0.1335 -0.3947  0.1221
  938UDC     C310310  12.685   3.963  18.625 -0.0083  0.1303 -0.4525
  938UDC     C410311  12.666   4.100  18.679  0.4215 -0.8743  0.6955
  938UDC     C510312  12.786   4.146  18.761 -0.3875  0.0792 -0.0642
  938UDC     C610313  12.787   4.296  18.795 -0.2171 -0.0673  0.7861
  938UDC     C710314  12.831   4.324  18.945  0.4680 -0.2333 -0.1477
  938UDC     C810315  12.861   4.460  19.009 -0.2658 -1.2076 -0.3977
  938UDC     C910316  12.970   4.530  18.926  0.2221  0.0141  0.2061
  938UDC    C1010317  13.012   4.665  18.978  1.0445 -0.5641  0.0567
  938UDC    C1110318  13.138   4.733  18.913  0.0897  0.8810  0.0395
  939UDC     C110319   1.918   9.798  11.522 -0.2800  0.4145 -0.6533
  939UDC     C210320   1.859   9.711  11.632  0.3425 -1.1903  0.2448
  939UDC     C310321   1.811   9.778  11.763  0.4517 -0.1619 -0.0309
  939UDC     C410322   1.730   9.904  11.738 -0.0375 -1.7088 -0.1883
  939UDC     C510323   1.702   9.983  11.867 -0.6003 -0.0208 -0.3335
  939UDC     C610324   1.615  10.104  11.846  0.3558 -0.0809 -0.1222
  939UDC     C710325   1.532  10.138  11.974 -0.0774  0.5968  1.0074
  939UDC     C810326   1.600  10.258  12.044 -0.9112  0.0852  0.7520
  939UDC     C910327   1.554  10.280  12.185  0.4841 -0.3206  1.0680
  939UDC    C1010328   1.633  10.379  12.277 -0.5421  0.6387 -0.1493
  939UDC    C1110329   1.787  10.359  12.278  0.6654 -0.1684 -0.7630
  940UDC     C110330   4.491  13.152  19.082  0.2854 -0.5870  0.8557
  940UDC     C210331   4.635  13.160  19.054 -0.4875  0.0838  0.2385
  940UDC     C310332   4.728  13.225  19.163 -0.0129 -0.3092  0.7831
  940UDC     C410333   4.750  13.378  19.169  1.2437 -0.4212 -0.4181
  940UDC     C510334   4.875  13.422  19.090 -0.4697 -0.0606 -0.0099
  940UDC     C610335   4.831  13.489  18.963 -0.0146 -0.2857 -0.0618
  940UDC     C710336   4.945  13.495  18.851 -0.3997  0.4942  0.4015
  940UDC     C810337   4.977  13.365  18.765 -0.2904  0.0832 -0.0760
  940UDC     C910338   5.113  13.373  18.692 -1.0967 -1.0778 -0.2432
  940UDC    C1010339   5.127  13.291  18.567 -0.5614 -1.2426 -0.5512
  940UDC    C1110340   5.259  13.310  18.497  0.2327  0.3834  0.2432
  941UDC     C110341  16.936   4.686  19.281 -0.6056  0.4680 -0.1376
  941UDC     C210342  16.804   4.649  19.337 -0.1270 -0.2793 -0.2215
  941UDC     C310343  16.777   4.542  19.436 -0.4866  1.0937 -0.2785
  941UDC     C410344  16.870   4.538  19.562  0.7751 -0.4117 -0.1847
  941UDC     C510345  16.776   4.563  19.680 -0.0484  1.2963  0.3017
  941UDC     C610346  16.859   4.561  19.806 -0.2551  0.3374 -0.8532
  941UDC     C710347  16.820   4.430  19.869  0.1873 -0.6368  0.3203
  941UDC     C810348  16.853   4.385  20.011  0.4641 -0.0204 -0.5872
  941UDC     C910349  16.976   4.287  20.032  0.6629 -0.3123  1.6132
  941UDC    C1010350  16.970   4.224  20.175 -0.4963 -0.4593  0.2109
  941UDC    C1110351  17.107   4.180  20.230  0.6384 -0.2191  0.3486
  942UDC     C110352  13.436  14.330   9.483 -0.7136  1.1056 -0.4594
  942UDC     C210353  13.458  14.353   9.633 -0.8189  0.4010  1.0915
  942UDC     C310354  13.359  14.457   9.687 -0.2528 -0.8351 -0.1821
  942UDC     C410355  13.392  14.503   9.838  0.5429  0.0962  0.1978
  942UDC     C510356  13.509  14.586   9.879 -0.3862 -0.2114 -0.4519
  942UDC     C610357  13.554  14.561  10.021  0.6633 -0.6263 -0.3732
  942UDC     C710358  13.705  14.578  10.034 -0.4344 -0.0572 -0.6321
  942UDC     C810359  13.784  14.468   9.960  0.5702  0.6692 -0.8313
  942UDC     C910360  13.783  14.320  10.008 -1.4491 -0.1583 -0.3800
  942UDC    C1010361  13.868  14.239   9.912 -0.1032 -0.1614  0.7507
  942UDC    C1110362  14.020  14.244   9.934  0.3112 -0.6098  0.6961
  943UDC     C110363   2.525   4.917  12.244 -0.5763  0.4881 -0.1486
  943UDC     C210364   2.391   4.954  12.303  0.5780 -0.9662 -0.9666
  943UDC     C310365   2.290   5.063  12.240 -0.0775 -0.2136 -0.1355
  943UDC     C410366   2.251   5.010  12.092  1.0034 -0.5179 -1.2607
  943UDC     C510367   2.137   5.094  12.029 -0.4103 -0.5056  0.9228
  943UDC     C610368   2.154   5.239  12.058 -0.0999 -0.9207  0.4353
  943UDC     C710369   2.031   5.321  12.031  0.0266 -1.1106  0.1744
  943UDC     C810370   2.047   5.464  11.973  0.4754 -0.2857  0.6695
  943UDC     C910371   2.152   5.481  11.860 -0.2214  0.4349 -0.8081
  943UDC    C1010372   2.220   5.617  11.854 -0.4898 -0.1419  0.3851
  943UDC    C1110373   2.133   5.741  11.813 -0.8398 -0.1809  0.3042
  944UDC     C110374   5.348  10.640  19.166 -0.4372 -0.0240  0.0436
  944UDC     C210375   5.285  10.541  19.070  0.1896 -0.0251  0.6315
  944UDC     C310376   5.288  10.414  19.157  0.2045 -0.0143 -0.3039
  944UDC     C410377   5.429  10.386  19.208 -0.0912 -0.1730  0.1388
  944UDC     C510378   5.435  10.259  19.296  0.9480  0.5605  0.3805
  944UDC     C610379   5.562  10.176  19.317 -0.0865 -0.6952 -1.0036
  944UDC     C710380   5.542  10.108  19.448 -0.4890  1.0856  0.4280
  944UDC     C810381   5.666  10.042  19.513 -0.7759 -0.0102 -0.3700
  944UDC     C910382   5.659  10.045  19.666  0.0658 -0.5926 -0.4596
  944UDC    C1010383   5.727   9.930  19.741  0.3683  0.0463  0.6558
  944UDC    C1110384   5.872   9.976  19.775  0.7157  0.7999  1.2986
  945UDC     C110385   0.343   3.939   8.412 -0.3851  0.0002 -0.5933
  945UDC     C210386   0.397   3.936   8.277 -0.5039 -0.4340  0.7137
  945UDC     C310387   0.534   4.018   8.277  0.4727  0.2770  0.1171
  945UDC     C410388   0.645   3.934   8.349  1.0947  0.9561 -0.4025
  945UDC     C510389   0.762   4.019   8.388 -0.2891 -0.2911  0.4873
  945UDC     C610390   0.863   4.051   8.261  0.2425  1.3182  0.4999
  945UDC     C710391   0.999   4.122   8.300  0.3360  0.5838 -1.1685
  945UDC     C810392   1.117   4.104   8.211 -0.2201 -0.2872 -0.3698
  945UDC     C910393   1.248   4.172   8.284  0.0487  0.8415  1.1918
  945UDC    C1010394   1.370   4.196   8.201 -0.8445  0.0770 -0.8713
  945UDC    C1110395   1.486   4.095   8.232  0.3252 -0.1825 -0.5999
  946UDC     C110396   8.183  11.984  11.718  0.6490 -0.5001  0.1809
  946UDC     C210397   8.217  11.986  11.572  0.5812 -1.5308 -0.3618
  946UDC     C310398   8.350  11.920  11.530 -1.0125  1.5554 -0.1945
  946UDC     C410399   8.356  11.766  11.540 -0.0359  0.6776 -0.9853
  946UDC     C510400   8.471  11.705  11.454  0.0040 -0.2869  0.4161
  946UDC     C610401   8.461  11.766  11.313 -0.2601 -0.2824 -0.3758
  946UDC     C710402   8.556  11.716  11.201  0.4200 -0.0819  0.9129
  946UDC     C810403   8.544  11.790  11.067  0.4506  1.4754 -1.1588
  946UDC     C910404   8.634  11.726  10.958  0.0245 -0.0318 -0.4277
  946UDC    C1010405   8.559  11.609  10.891  0.1849  0.1307  0.3674
  946UDC    C1110406   8.643  11.545  10.777 -0.5280  0.4746  0.3799
  947UDC     C110407  17.751   7.958   0.613  0.6351  0.0528 -0.5067
  947UDC     C210408  17.787   7.849   0.716  0.3860 -0.5664  0.2080
  947UDC     C310409  17.661   7.777   0.765 -0.5504  0.3986  0.2805
  947UDC     C410410  17.588   7.689   0.663  0.7315  0.5337 -0.2935
  947UDC     C510411  17.439   7.660   0.696  0.0840  0.5390 -0.9367
  947UDC     C610412  17.360   7.790   0.677 -0.5030  0.7277 -1.7653
  947UDC     C710413  17.238   7.791   0.572 -0.1212 -1.3396 -0.2995
  947UDC     C810414  17.271   7.848   0.431  1.0118 -0.5224 -0.5870
  947UDC     C910415  17.157   7.823   0.330  0.0971 -0.5142 -0.2266
  947UDC    C1010416  17.141   7.671   0.301 -0.2556  0.7710 -0.2304
  947UDC    C1110417  17.005   7.647   0.238  0.5829 -1.0226  0.3939
  948UDC     C110418  13.378  18.216  17.293  0.6065  0.2761  0.0803
  948UDC     C210419  13.244  18.217  17.223 -0.1964 -0.1438  1.0473
  948UDC     C310420  13.265  18.312  17.105  0.2846 -0.5384 -1.1502
  948UDC     C410421  13.168  18.441  17.117 -0.5783 -0.5155  0.2520
  948UDC     C510422  13.018  18.418  17.087  0.0338  0.5815  0.2888
  948UDC     C610423  12.937  18.545  17.083  0.1087 -0.1893  0.2917
  948UDC     C710424  12.953  18.634  17.201  0.3090  0.6177 -1.2190
  948UDC     C810425  12.880  18.590  17.337 -0.1685  0.6150  0.8838
  948UDC     C910426  12.873  18.694  17.448  0.2940 -0.2245 -0.5993
  948UDC    C1010427  12.800  18.824  17.394 -0.2184  0.0379  1.0556
  948UDC    C1110428  12.653  18.794  17.345  0.5456 -0.6774 -0.6196
  949UDC     C110429  19.625  19.596  12.085 -0.7280  1.4075  1.0150
  949UDC     C210430  19.697  19.601  11.953  0.0521 -0.1399  0.1504
  949UDC     C310431  19.650  19.735  11.886  0.1946 -0.0115 -0.3442
  949UDC     C410432  19.501  19.746  11.858 -0.6188  0.4710  0.7827
  949UDC     C510433  19.471  19.892  11.824  0.1147  0.3130  0.4862
  949UDC     C610434  19.324  19.913  11.800 -0.2957 -0.1752  0.3565
  949UDC     C710435  19.295  20.059  11.744 -0.1533 -0.4844 -0.5578
  949UDC     C810436  19.160  20.136  11.753  0.3151 -0.8263  0.1734
  949UDC     C910437  19.160  20.252  11.647 -0.0517  0.2476 -0.5218
  949UDC    C1010438  19.057  20.359  11.672  0.5241 -0.4005 -1.1294
  949UDC    C1110439  19.073  20.471  11.569 -0.7184  0.0699  0.6255
  950UDC     C110440   0.601   8.753  11.562 -0.0676 -0.3398 -0.7693
  950UDC     C210441   0.720   8.844  11.572  1.0973 -0.4544 -0.3554
  950UDC     C310442   0.684   8.988  11.626 -0.4079  0.5762  0.2363
  950UDC     C410443   0.794   9.100  11.599  0.1185  1.0238  0.7030
  950UDC     C510444   0.939   9.044  11.611  0.3037 -1.9356  1.1247
  950UDC     C610445   1.052   9.149  11.605  0.4743  0.5902 -0.3097
  950UDC     C710446   1.104   9.190  11.464  0.3678 -1.0701  0.7687
  950UDC     C810447   1.057   9.329  11.398  0.3354 -0.0363  0.7404
  950UDC     C910448   1.167   9.368  11.296  0.0061 -0.4638 -0.0608
  950UDC    C1010449   1.132   9.510  11.236 -0.5873  1.0496 -0.0803
  950UDC    C1110450   1.093   9.612  11.349 -0.0877  0.6784  0.5677
  951UDC     C110451  12.451   9.239   2.778  0.5995 -0.2811  0.5010
  951UDC     C210452  12.318   9.318   2.745  0.0058 -0.7191 -0.0497
  951UDC     C310453  12.346   9.384   2.607 -0.5340 -0.0462  0.9718
  951UDC     C410454  12.306   9.523   2.551  0.1565  0.4143 -0.3874
  951UDC     C510455  12.207   9.597   2.638 -0.2806  0.1139 -0.2202
  951UDC     C610456  12.165   9.723   2.559  0.3072 -0.6334 -0.4503
  951UDC     C710457  12.135   9.838   2.661  0.2663  0.2304  0.2312
  951UDC     C810458  12.141   9.988   2.618 -0.3734 -0.3326  0.2219
  951UDC     C910459  12.087  10.071   2.745 -0.2862  0.9062  0.1275
  951UDC    C1010460  12.090  10.228   2.747  0.2987  0.2870  0.5441
  951UDC    C1110461  11.996  10.299   2.841 -0.4863  0.4353 -0.2586
  952UDC     C110462  13.308   8.288  10.380  0.2411  0.3683 -1.0848
  952UDC     C210463  13.292   8.202  10.256 -0.9854  0.4233 -0.8079
  952UDC     C310464  13.290   8.290  10.134  0.3773 -0.0623  0.0447
  952UDC     C410465  13.296   8.215   9.998  0.2550 -0.1084  0.1150
  952UDC     C510466  13.419   8.131   9.967 -0.7598  0.1760 -0.6257
  952UDC     C610467  13.430   8.093   9.818 -1.4781 -0.9457 -0.0030
  952UDC     C710468  13.395   8.214   9.733 -0.8239 -0.9172  0.7389
  952UDC     C810469  13.412   8.181   9.585 -0.6541  0.0099  0.8319
  952UDC     C910470  13.404   8.302   9.492  0.1832  0.1382  0.2929
  952UDC    C1010471  13.453   8.272   9.350  0.5643  1.0373 -1.4813
  952UDC    C1110472  13.431   8.381   9.236 -0.2106  0.3523 -1.1184
  953UDC     C110473  13.560  17.369  18.869 -0.1583  0.4358 -0.0419
  953UDC     C210474  13.432  17.313  18.805  0.7888 -0.3612  0.5538
  953UDC     C310475  13.433  17.267  18.648 -0.0686 -0.6401  0.0810
  953UDC     C410476  13.295  17.258  18.574  0.6814  0.0577 -0.3407
  953UDC     C510477  13.283  17.228  18.422  0.3108  0.3021  0.3157
  953UDC     C610478  13.131  17.203  18.396  0.8650  0.7985 -0.6204
  953UDC     C710479  13.120  17.128  18.262 -0.4287 -0.7975  0.0060
  953UDC     C810480  12.982  17.137  18.198 -0.3564  0.8062  1.0425
  953UDC     C910481  12.968  17.285  18.157 -0.2934  0.5477  0.0151
  953UDC    C1010482  12.848  17.336  18.085  0.0747  0.5682  2.0265
  953UDC    C1110483  12.828  17.488  18.125 -0.6384  0.4406  0.1417
  954UDC     C110484  17.188   0.672  19.179 -0.7792 -0.6247 -0.0468
  954UDC     C210485  17.134   0.799  19.248  0.0269 -0.2562 -0.9079
  954UDC     C310486  16.990   0.781  19.292  0.2589 -0.1290 -0.8482
  954UDC     C410487  16.895   0.886  19.236 -0.3367 -1.2553  0.3142
  954UDC     C510488  16.806   0.809  19.140 -1.6722 -1.1010  0.2888
  954UDC     C610489  16.697   0.906  19.115 -0.1155 -0.9491  0.5062
  954UDC     C710490  16.580   0.873  19.023  0.2462  0.3889  0.3654
  954UDC     C810491  16.482   0.994  19.010  0.3348  0.3849  0.2634
  954UDC     C910492  16.385   0.959  18.904  0.2864 -0.9511 -0.1946
  954UDC    C1010493  16.276   0.858  18.956 -0.9355 -0.3449 -0.4802
  954UDC    C1110494  16.152   0.921  19.018  1.5312  0.5557 -0.6165
  955UDC     C110495   2.248   5.398  10.683 -0.2355 -0.1910  0.2505
  955UDC     C210496   2.096   5.404  10.719 -0.7991 -0.1125 -0.3612
  955UDC     C310497   2.061   5.349  10.856 -0.1723  0.5153 -0.4349
  955UDC     C410498   2.062   5.193  10.850 -0.0017  0.8695  0.3325
  955UDC     C510499   1.978   5.119  10.955 -0.4836  0.1507 -1.2096
  955UDC     C610500   1.924   5.191  11.081 -0.4589 -1.0846  0.1263
  955UDC     C710501   1.853   5.109  11.186  0.1486  0.8327 -0.9010
  955UDC     C810502   1.948   5.021  11.263  0.1435 -0.0062 -0.3515
  955UDC     C910503   2.062   5.094  11.329 -0.8535 -0.2907  1.1694
  955UDC    C1010504   2.059   5.091  11.484  0.1708 -1.0086 -0.0789
  955UDC    C1110505   2.073   4.952  11.543 -0.9321  1.5451  0.4480
  956UDC     C110506  13.829   0.736  14.471 -0.3992  0.3189 -0.3602
  956UDC     C210507  13.771   0.607  14.522 -0.6841 -0.4086 -1.1701
  956UDC     C310508  13.706   0.619  14.661  0.1613  1.3456 -0.2518
  956UDC     C410509  13.644   0.496  14.721 -0.6095 -1.1011  0.1716
  956UDC     C510510  13.495   0.483  14.701  1.0308 -1.6014  0.7095
  956UDC     C610511  13.437   0.356  14.767  0.3222 -0.7306 -0.1496
  956UDC     C710512  13.282   0.348  14.770  0.1799  0.0094 -0.0695
  956UDC     C810513  13.227   0.236  14.858 -0.1141  0.6915  0.8803
  956UDC     C910514  13.251   0.090  14.807  0.5164  0.6925  0.2734
  956UDC    C1010515  13.186   0.053  14.667  0.4739 -0.9609  0.8813
  956UDC    C1110516  13.249   0.093  14.540 -0.3883 -0.0796 -0.0192
  957UDC     C110517   0.331  19.201   9.189 -0.6594  0.4969  0.2157
  957UDC     C210518   0.397  19.336   9.220 -0.1981  0.0605 -0.1560
  957UDC     C310519   0.545  19.306   9.241  0.7463  0.7627 -1.0634
  957UDC     C410520   0.575  19.257   9.385 -0.0724 -1.1178 -0.3859
  957UDC     C510521   0.718  19.205   9.393 -0.1495 -1.3132  0.0191
  957UDC     C610522   0.747  19.065   9.341 -0.7726  0.2759  0.2479
  957UDC     C710523   0.895  19.045   9.299  0.6650  0.2982 -0.0468
  957UDC     C810524   0.932  19.128   9.172  0.0375 -0.3354 -0.8194
  957UDC     C910525   0.860  19.085   9.051  0.7089 -0.0090 -0.4980
  957UDC    C1010526   0.878  19.188   8.938 -0.4585  0.2992 -0.1071
  957UDC    C1110527   0.780  19.175   8.815 -0.4358  0.2374 -0.1086
  958UDC     C110528   5.894  12.180   5.894  0.3507  0.6022  0.3199
  958UDC     C210529   5.976  12.168   6.024 -0.7262  0.2027 -0.0340
  958UDC     C310530   5.891  12.212   6.146 -0.7736 -0.3600 -0.8380
  958UDC     C410531   5.994  12.224   6.258 -0.3554 -1.1525 -0.2225
  958UDC     C510532   5.981  12.346   6.346 -1.0068  0.3954 -0.8836
  958UDC     C610533   6.018  12.329   6.501  0.6239 -0.8831  0.1296
  958UDC     C710534   6.152  12.404   6.542 -0.4370  0.9122 -0.5225
  958UDC     C810535   6.178  12.413   6.696  0.8056 -0.0161 -0.4449
  958UDC     C910536   6.152  12.533   6.792 -0.3956  0.9766 -0.3919
  958UDC    C1010537   6.216  12.663   6.751 -0.1441  0.9115  0.1144
  958UDC    C1110538   6.170  12.736   6.616  1.1017 -0.0845 -1.2431
  959UDC     C110539  11.386   0.716  14.805  0.1439 -0.3278  0.2508
  959UDC     C210540  11.456   0.754  14.934 -0.2427  0.1334 -0.7154
  959UDC     C310541  11.590   0.830  14.920  0.2202 -0.1124 -0.6274
  959UDC     C410542  11.716   0.750  14.873 -0.1164 -1.0067 -0.5532
  959UDC     C510543  11.848   0.829  14.869  0.3537  0.2524  0.2632
  959UDC     C610544  11.846   0.975  14.811  0.9962  0.4879  0.1766
  959UDC     C710545  11.789   1.001  14.669  0.2100 -0.5864 -0.0874
  959UDC     C810546  11.797   1.151  14.630  0.1963  0.5224 -0.4779
  959UDC     C910547  11.764   1.161  14.483  0.5936  0.4565  1.0025
  959UDC    C1010548  11.811   1.295  14.414  0.7967  1.4562 -0.1503
  959UDC    C1110549  11.756   1.329  14.271 -0.1005  0.4411 -0.7213
  960UDC     C110550   4.013   8.307  16.779 -0.2561 -0.3386 -0.1884
  960UDC     C210551   3.956   8.278  16.639  0.0390 -0.0115  0.8149
  960UDC     C310552   4.048   8.333  16.526 -0.0826  0.8626  0.8154
  960UDC     C410553   4.175   8.248  16.519  1.0551  0.3926 -0.2494
  960UDC     C510554   4.162   8.104  16.458 -0.1987 -0.5453 -0.9009
  960UDC     C610555   4.273   8.008  16.499  0.1887 -0.1083  0.4159
  960UDC     C710556   4.237   7.868  16.439  0.1576  0.2208  0.0341
  960UDC     C810557   4.338   7.763  16.486 -0.5932 -0.2263  0.5574
  960UDC     C910558   4.321   7.687  16.617 -1.2447  1.0858  1.5811
  960UDC    C1010559   4.427   7.569  16.623 -0.3041 -0.0759  0.0334
  960UDC    C1110560   4.566   7.632  16.588  0.1760 -0.1085  0.4111
  961UDC     C110561  14.219   9.622   8.333  0.9240  0.7081 -0.0720
  961UDC     C210562  14.192   9.744   8.249  0.7033  0.6311 -0.0531
  961UDC     C310563  14.252   9.724   8.109  0.1262  0.0665 -0.4470
  961UDC     C410564  14.291   9.857   8.051 -0.5819 -0.1076  0.9092
  961UDC     C510565  14.345   9.840   7.898 -0.5547 -0.2305  0.9276
  961UDC     C610566  14.253   9.739   7.831 -0.4842 -0.2993  1.1519
  961UDC     C710567  14.310   9.691   7.699  0.1225 -0.0152 -0.0599
  961UDC     C810568  14.237   9.578   7.633 -0.7348  0.3169  0.7049
  961UDC     C910569  14.237   9.454   7.722  0.0830 -0.9739 -0.1898
  961UDC    C1010570  14.147   9.347   7.669  0.2371 -0.2595 -0.5400
  961UDC    C1110571  14.006   9.346   7.731  1.0726  0.5597 -0.3377
  962UDC     C110572  10.776  16.939  10.709  0.6172  0.5834 -0.3584
  962UDC     C210573  10.678  17.054  10.689  0.9527 -0.7259  0.5980
  962UDC     C310574  10.542  17.057  10.772  0.2281  0.3703  0.5369
  962UDC     C410575  10.443  17.178  10.757  0.0796  0.9742 -0.1693
  962UDC     C510576  10.300  17.141  10.818 -0.1443 -0.2556  0.6784
  962UDC     C610577  10.196  17.253  10.788 -0.4788 -0.0448  0.5688
  962UDC     C710578  10.193  17.330  10.653 -0.3842 -0.4993 -0.2023
  962UDC     C810579  10.267  17.464  10.669 -0.3219 -0.0410  0.9575
  962UDC     C910580  10.228  17.561  10.552 -0.5845  0.3207 -0.2117
  962UDC    C1010581  10.364  17.616  10.487 -0.7311 -0.2917  0.6031
  962UDC    C1110582  10.346  17.715  10.359  0.4482 -0.2487 -0.2447
  963UDC     C110583  15.459   2.351  13.390  0.3360 -0.4543 -0.6418
  963UDC     C210584  15.613   2.366  13.363  0.2765 -0.1070 -0.7766
  963UDC     C310585  15.701   2.250  13.389  0.6212 -0.3041 -0.3542
  963UDC     C410586  15.839   2.250  13.321 -0.2352 -0.2157 -1.0093
  963UDC     C510587  15.925   2.134  13.360 -0.8812 -0.6578  0.1522
  963UDC     C610588  15.958   2.152  13.506  0.3782  0.2426 -1.0082
  963UDC     C710589  16.086   2.072  13.551  0.5595 -1.4312  0.4197
  963UDC     C810590  16.147   2.129  13.679  0.3109  0.1859 -0.2256
  963UDC     C910591  16.290   2.089  13.721 -0.7791  0.1762 -0.0094
  963UDC    C1010592  16.308   1.954  13.654 -0.5012  1.2427 -0.7084
  963UDC    C1110593  16.437   1.892  13.706 -0.2103  0.5844 -0.2026
  964UDC     C110594   2.499   3.591  13.551  0.6632  0.3236 -0.1948
  964UDC     C210595   2.635   3.600  13.630  0.2360  0.7035 -0.3936
  964UDC     C310596   2.617   3.529  13.770  0.2725 -1.1415 -0.3550
  964UDC     C410597   2.750   3.524  13.843  1.1768 -0.4458 -0.2997
  964UDC     C510598   2.776   3.535  13.994  0.6484  0.6452 -0.4454
  964UDC     C610599   2.749   3.666  14.069 -0.7722 -0.1446  0.0409
  964UDC     C710600   2.796   3.700  14.214  0.1212 -0.8342 -0.0363
  964UDC     C810601   2.707   3.658  14.335 -0.1962  0.1552 -0.8977
  964UDC     C910602   2.733   3.719  14.475 -0.0851 -0.4728  0.7604
  964UDC    C1010603   2.731   3.596  14.569 -0.2425  0.0406 -0.3392
  964UDC    C1110604   2.837   3.489  14.536 -1.2206 -0.4585 -0.4195
  965UDC     C110605   7.604  15.623   6.743  0.7562  0.9846  0.2543
  965UDC     C210606   7.606  15.472   6.768  0.4171 -0.2848 -0.4229
  965UDC     C310607   7.629  15.397   6.902  0.9258 -0.8231 -0.7300
  965UDC     C410608   7.775  15.405   6.939 -0.6623 -0.1229  0.0913
  965UDC     C510609   7.815  15.303   7.051  0.3867  0.1186 -0.0628
  965UDC     C610610   7.805  15.156   7.019  0.1834  2.0132  0.3669
  965UDC     C710611   7.817  15.062   7.139 -0.4573 -0.9739 -0.0001
  965UDC     C810612   7.709  15.078   7.241  0.2900  0.4739  0.2855
  965UDC     C910613   7.736  15.004   7.378  0.3825 -0.2887  1.7820
  965UDC    C1010614   7.867  15.042   7.443 -0.2292  0.3955  0.3130
  965UDC    C1110615   7.878  14.965   7.579 -0.2930 -0.0748  0.5660
  966UDC     C110616  19.642  15.976   4.981  0.3322  0.5286  0.2335
  966UDC     C210617  19.800  15.970   4.971 -1.6510  0.7417  0.7290
  966UDC     C310618  19.870  15.921   4.839 -0.2746 -0.7719 -0.4352
  966UDC     C410619  19.791  15.794   4.785 -0.8486  0.6621 -0.0061
  966UDC     C510620  19.855  15.724   4.657 -0.5163 -0.2479 -0.2722
  966UDC     C610621  19.936  15.824   4.577 -0.7472  0.4466 -0.3627
  966UDC     C710622  19.999  15.770   4.448  0.2547 -0.1313  0.4926
  966UDC     C810623  20.055  15.907   4.406  1.1436  0.1473  0.5869
  966UDC     C910624  20.196  15.951   4.446  0.6162  0.0351 -0.8443
  966UDC    C1010625  20.265  16.081   4.399 -0.2613 -0.6876  1.1155
  966UDC    C1110626  20.304  16.090   4.246  0.0075 -0.5051 -0.5358
  967UDC     C110627  11.581  18.227  19.061  1.2280  0.2253 -0.8040
  967UDC     C210628  11.489  18.300  18.958  0.4440 -0.0106 -0.5151
  967UDC     C310629  11.341  18.299  19.015 -1.0968 -1.1058  0.3796
  967UDC     C410630  11.260  18.170  19.017 -0.5162  0.4104  0.4046
  967UDC     C510631  11.125  18.165  19.088  0.0833 -0.0376  0.1918
  967UDC     C610632  11.021  18.246  19.013  0.4779  0.8650  0.0585
  967UDC     C710633  10.905  18.273  19.109 -0.1318 -0.6857  0.3573
  967UDC     C810634  10.923  18.381  19.219  0.4269  0.1426  0.0560
  967UDC     C910635  10.875  18.332  19.358  0.5132  0.3965 -0.8221
  967UDC    C1010636  10.937  18.415  19.476 -0.1591 -1.1500  0.9380
  967UDC    C1110637  10.822  18.503  19.535 -0.3339  0.0557  0.4954
  968UDC     C110638  14.538   9.583   6.511  0.4474  0.4751 -0.5105
  968UDC     C210639  14.443   9.467   6.569 -1.2327  1.1268 -0.4633
  968UDC     C310640  14.301   9.483   6.519  0.9319  1.2358 -0.3738
  968UDC     C410641  14.229   9.617   6.565 -0.2810 -0.2232 -0.9286
  968UDC     C510642  14.083   9.660   6.529 -0.8321 -0.1894  0.1631
  968UDC     C610643  14.070   9.810   6.517  0.8771  0.0638  0.3310
  968UDC     C710644  13.935   9.846   6.453  0.0505  1.1179  0.0350
  968UDC     C810645  13.893   9.989   6.485 -0.0639  0.2675  1.3399
  968UDC     C910646  13.822  10.054   6.351 -0.0572  1.1771  0.3401
  968UDC    C1010647  13.896  10.022   6.218  1.1094 -0.4038 -0.1446
  968UDC    C1110648  13.834  10.118   6.113 -0.0619  0.4405  0.3828
  969UDC     C110649  12.002  10.579   5.476 -0.1281 -0.0037 -0.6445
  969UDC     C210650  12.079  10.467   5.547 -0.9138 -0.0453  0.0958
  969UDC     C310651  12.019  10.347   5.482  0.8175 -0.3560 -0.2422
  969UDC     C410652  12.081  10.227   5.557  0.5557  1.0373  0.8536
  969UDC     C510653  12.034  10.085   5.507 -0.9489  0.9398 -1.1357
  969UDC     C610654  12.113   9.984   5.600 -0.2231 -0.6759  0.6129
  969UDC     C710655  12.199   9.876   5.536  0.5182  0.0192 -0.2096
  969UDC     C810656  12.304   9.813   5.628 -0.8248 -0.5977  0.1675
  969UDC     C910657  12.402   9.717   5.551 -0.1397 -0.7374  0.4054
  969UDC    C1010658  12.354   9.579   5.528  0.1395 -0.3147  0.1491
  969UDC    C1110659  12.338   9.501   5.659  0.7362 -0.6580  0.5795
  970UDC     C110660  14.444   9.771  15.140  0.4018 -0.1500 -1.0737
  970UDC     C210661  14.534   9.881  15.081  1.2164  0.7752 -1.3146
  970UDC     C310662  14.445  10.002  15.034 -0.0409  0.0393 -0.2728
  970UDC     C410663  14.504  10.143  15.047  0.8654 -0.6041 -0.5015
  970UDC     C510664  14.389  10.248  15.001 -0.8712 -0.2614 -0.4660
  970UDC     C610665  14.255  10.240  15.070 -0.1765 -1.0772  0.3407
  970UDC     C710666  14.249  10.271  15.215  0.2865 -0.2699  0.1916
  970UDC     C810667  14.283  10.419  15.247  0.7836 -0.4114  0.5790
  970UDC     C910668  14.433  10.448  15.274 -0.2601 -0.8301 -0.2726
  970UDC    C1010669  14.457  10.603  15.280 -0.6206 -0.9092  0.3601
  970UDC    C1110670  14.375  10.673  15.388 -0.6017  0.4269 -0.2493
  971UDC     C110671   2.057  18.069   8.334 -0.4635  0.6343 -0.0639
  971UDC     C210672   1.977  18.134   8.442 -1.0809 -0.3377  0.2318
  971UDC     C310673   1.928  18.049   8.561  0.2895 -0.1288  0.4819
  971UDC     C410674   2.042  18.037   8.669 -0.2512 -0.5325 -1.0304
  971UDC     C510675   2.006  17.957   8.798  0.0555  1.0959 -0.1654
  971UDC     C610676   1.909  18.026   8.896 -0.9330  0.0545 -0.0298
  971UDC     C710677   1.873  17.934   9.009  0.2190 -0.3114 -0.5296
  971UDC     C810678   1.994  17.868   9.064 -0.2626 -0.4628 -0.3098
  971UDC     C910679   1.978  17.822   9.213  0.0507 -0.0635 -0.4067
  971UDC    C1010680   2.054  17.694   9.252 -0.0442  0.0203 -0.3991
  971UDC    C1110681   1.958  17.594   9.323 -0.1381 -0.0010  0.2592
  972UDC     C110682  15.205   4.088  12.939  1.4482 -0.5059 -1.4555
  972UDC     C210683  15.074   4.089  13.020  0.0284  0.5647  1.0843
  972UDC     C310684  15.044   4.228  13.076 -1.1652  0.4133  0.5147
  972UDC     C410685  14.989   4.325  12.971 -0.9826 -0.5043 -0.1253
  972UDC     C510686  15.041   4.456  13.016 -0.3558  0.7039 -0.5113
  972UDC     C610687  15.005   4.511  13.154  0.7502 -0.5408 -0.0180
  972UDC     C710688  15.126   4.587  13.223  0.8921  0.4613  0.3177
  972UDC     C810689  15.239   4.502  13.279  0.4252  0.1005  0.9256
  972UDC     C910690  15.228   4.377  13.377  0.7268  0.5571 -0.1118
  972UDC    C1010691  15.328   4.398  13.496 -0.4731 -0.7066 -0.0416
  972UDC    C1110692  15.475   4.368  13.447 -0.1298 -0.4171 -0.5210
  973UDC     C110693  12.942   3.002  18.495 -0.9030 -1.3813  0.5938
  973UDC     C210694  13.035   3.086  18.597  0.5107 -0.8060  0.4539
  973UDC     C310695  13.185   3.078  18.574 -0.5740  0.1385  0.0782
  973UDC     C410696  13.196   3.139  18.435 -1.0904  0.7297  1.1720
  973UDC     C510697  13.327   3.095  18.348  0.8210 -0.8131 -1.3117
  973UDC     C610698  13.336   2.972  18.260 -0.9607 -0.3726  0.1096
  973UDC     C710699  13.288   2.972  18.113 -0.0333 -0.7059 -0.2029
  973UDC     C810700  13.281   2.829  18.065  0.9210 -0.0159 -0.3983
  973UDC     C910701  13.194   2.809  17.934 -0.4090  0.5322  0.2575
  973UDC    C1010702  13.251   2.865  17.804 -0.3705 -0.7901 -0.0411
  973UDC    C1110703  13.144   2.915  17.703  0.8784  2.0351 -0.2325
  974UDC     C110704  14.399  13.534  12.481  0.6496  0.6155 -0.0561
  974UDC     C210705  14.293  13.428  12.442  0.9251  0.5272  0.4223
  974UDC     C310706  14.167  13.488  12.380 -0.2474  0.0336  0.5746
  974UDC     C410707  14.096  13.409  12.268  0.0339 -1.4628 -0.5304
  974UDC     C510708  14.193  13.349  12.164 -1.0485 -0.2033 -0.7791
  974UDC     C610709  14.163  13.203  12.136 -0.0951  1.0542 -1.2061
  974UDC     C710710  14.151  13.126  12.269 -0.5293 -0.5348  1.3620
  974UDC     C810711  14.143  12.976  12.246  0.2253  0.0710 -0.1343
  974UDC     C910712  14.127  12.896  12.373  0.3499  0.6321 -0.1426
  974UDC    C1010713  14.177  12.751  12.356  0.5966 -0.3761  0.5787
  974UDC    C1110714  14.282  12.728  12.243 -0.4518  0.7326  0.5397
  975UDC     C110715   5.349  10.569  17.389  0.4765  0.0889  0.1003
  975UDC     C210716   5.296  10.713  17.361 -0.4476  0.4455  1.4902
  975UDC     C310717   5.150  10.720  17.303 -0.0049  1.3269 -0.3213
  975UDC     C410718   5.127  10.867  17.283 -0.3644 -0.7706 -0.0448
  975UDC     C510719   5.178  10.921  17.149  0.5457 -0.0155  0.7397
  975UDC     C610720   5.105  10.868  17.021 -0.5421  0.6085 -0.8619
  975UDC     C710721   5.210  10.829  16.924  0.7328 -0.0430  0.4826
  975UDC     C810722   5.230  10.928  16.812  1.0183  0.7020  0.6674
  975UDC     C910723   5.320  10.869  16.708  0.4259  0.0263 -0.3390
  975UDC    C1010724   5.326  10.962  16.588 -0.9128 -0.1552 -0.0009
  975UDC    C1110725   5.338  10.901  16.446  0.4387  0.0991  0.2094
  976UDC     C110726  15.225  15.806   5.970  0.6236 -0.4717 -0.4289
  976UDC     C210727  15.160  15.847   5.834 -0.9171  0.0364  0.7603
  976UDC     C310728  15.008  15.832   5.824  1.2791  0.5544 -1.4344
  976UDC     C410729  14.957  15.876   5.683  1.0629 -0.4892 -0.7739
  976UDC     C510730  14.956  16.026   5.649 -0.2863  0.1620  0.2858
  976UDC     C610731  14.892  16.086   5.526  0.1782  0.3461  0.2013
  976UDC     C710732  14.960  16.198   5.444  0.0799  0.6147  1.0666
  976UDC     C810733  14.854  16.269   5.363 -0.6583 -0.3156 -0.2318
  976UDC     C910734  14.710  16.212   5.368  1.2119  0.8629 -0.3265
  976UDC    C1010735  14.685  16.129   5.238  0.7561  0.7107 -0.7266
  976UDC    C1110736  14.654  16.245   5.138  0.3538 -0.0231  0.8384
  977UDC     C110737  19.346   4.072  18.335 -1.0463 -0.1615  0.5816
  977UDC     C210738  19.286   3.973  18.431  0.0750 -0.6515 -0.7600
  977UDC     C310739  19.233   4.024  18.567  0.3468 -0.3952 -0.1005
  977UDC     C410740  19.206   3.906  18.668  0.3861  0.3788  0.2892
  977UDC     C510741  19.318   3.800  18.656  1.1691 -0.0264  0.1042
  977UDC     C610742  19.264   3.690  18.554  0.9072 -0.4638  1.0506
  977UDC     C710743  19.308   3.548  18.574 -0.2653  0.2616 -0.2449
  977UDC     C810744  19.287   3.487  18.712  0.7524  0.3585 -0.4473
  977UDC     C910745  19.323   3.330  18.732 -0.4718  0.3748 -0.0845
  977UDC    C1010746  19.346   3.286  18.884 -1.2372 -0.1002  0.3261
  977UDC    C1110747  19.426   3.157  18.899  0.4215 -0.2392 -1.0614
  978UDC     C110748  17.283   4.409   8.579  0.2180  0.1854 -0.3313
  978UDC     C210749  17.365   4.325   8.480 -0.6173 -0.2362 -1.3473
  978UDC     C310750  17.370   4.379   8.341 -0.5317  1.0874 -0.3539
  978UDC     C410751  17.469   4.488   8.314 -0.5525 -0.0500  0.9510
  978UDC     C510752  17.448   4.605   8.223 -0.6219  0.7609  0.7991
  978UDC     C610753  17.558   4.637   8.118  0.7284 -1.2698  0.2537
  978UDC     C710754  17.559   4.796   8.077 -0.2186  0.1714  0.0398
  978UDC     C810755  17.682   4.846   8.007  0.7761  1.1469  0.8953
  978UDC     C910756  17.641   4.978   7.948  1.0415  1.2229 -0.2108
  978UDC    C1010757  17.520   4.974   7.848 -0.7901  0.7092 -0.6312
  978UDC    C1110758  17.522   4.878   7.728  0.0250 -0.5327 -0.3222
  979UDC     C110759  19.164   1.401   4.161  0.2292  0.1705 -0.2670
  979UDC     C210760  19.245   1.413   4.291  0.9692 -0.7230 -0.3729
  979UDC     C310761  19.391   1.379   4.279 -0.0214  0.0064  0.0542
  979UDC     C410762  19.423   1.222   4.267 -0.3849 -0.4933  0.5415
  979UDC     C510763  19.557   1.154   4.241 -0.5514  0.8397 -0.7860
  979UDC     C610764  19.594   1.158   4.096 -0.6395  1.0909  0.4656
  979UDC     C710765  19.509   1.050   4.026  0.4707 -1.0029 -0.9740
  979UDC     C810766  19.585   0.980   3.911 -0.5895 -0.1030  0.2760
  979UDC     C910767  19.515   0.879   3.820  0.5937  0.3606 -0.4655
  979UDC    C1010768  19.420   0.942   3.714  0.7172 -1.0060 -0.2834
  979UDC    C1110769  19.485   0.991   3.588 -0.1727 -0.9064  0.1984
  980UDC     C110770   9.740  15.547   8.819  1.8817 -0.4031 -1.6519
  980UDC     C210771   9.830  15.655   8.874 -0.8708  0.4481  0.0841
  980UDC     C310772   9.904  15.711   8.747  0.5689  0.2486 -0.1097
  980UDC     C410773   9.966  15.617   8.639  0.1647 -0.6413 -0.6335
  980UDC     C510774  10.043  15.683   8.527  0.9304  0.2226 -0.1476
  980UDC     C610775  10.184  15.728   8.545 -0.5561  0.4954  0.3240
  980UDC     C710776  10.217  15.838   8.443  0.7050  0.1103  0.1966
  980UDC     C810777  10.364  15.876   8.455  0.7423  0.0091 -0.2725
  980UDC     C910778  10.406  15.930   8.313 -0.8627  0.0110  0.1642
  980UDC    C1010779  10.433  15.817   8.212 -0.2328  0.1131  0.6128
  980UDC    C1110780  10.490  15.861   8.074 -0.8595  0.0891  0.3865
  981UDC     C110781  11.853   9.630   7.204 -0.2048 -1.1850 -0.0023
  981UDC     C210782  11.722   9.684   7.269 -0.3224  0.4298  1.0740
  981UDC     C310783  11.626   9.575   7.315  0.3627  0.1436  0.9730
  981UDC     C410784  11.492   9.619   7.366 -0.6312  0.1564 -0.2669
  981UDC     C510785  11.522   9.686   7.502 -0.3439 -0.3426  0.2375
  981UDC     C610786  11.591   9.563   7.574  0.6222  0.5621 -0.5554
  981UDC     C710787  11.601   9.593   7.718 -0.0528 -0.2219  1.1705
  981UDC     C810788  11.661   9.484   7.808 -0.0609 -0.1357  0.4834
  981UDC     C910789  11.635   9.340   7.762  0.6118 -0.2595 -0.7203
  981UDC    C1010790  11.654   9.237   7.877  0.8298  0.4675 -0.3065
  981UDC    C1110791  11.645   9.093   7.822 -0.5110 -0.3722  0.0746
  982UDC     C110792   1.422  11.342   1.202 -0.0782  0.1417  1.2989
  982UDC     C210793   1.385  11.468   1.278 -0.6517  0.6604 -0.9679
  982UDC     C310794   1.240  11.500   1.289  0.7930  0.2767  0.8950
  982UDC     C410795   1.173  11.398   1.380 -0.5384 -0.3158 -0.2705
  982UDC     C510796   1.174  11.443   1.523 -0.1129  0.0709  0.0434
  982UDC     C610797   1.044  11.486   1.593  0.3375  0.5874 -0.0405
  982UDC     C710798   1.036  11.551   1.733 -1.0127  0.8488  0.4719
  982UDC     C810799   1.075  11.436   1.830  0.3021 -0.4578  0.9172
  982UDC     C910800   1.146  11.487   1.951 -0.7039 -0.3494  0.0804
  982UDC    C1010801   1.048  11.549   2.052 -0.4664  0.2834  0.0528
  982UDC    C1110802   1.099  11.674   2.127  0.0562  0.9425  0.9980
  983UDC     C110803  16.945   5.998   5.022 -0.4988 -0.6765  0.5064
  983UDC     C210804  16.806   6.059   5.030  0.1941  1.7720  0.2105
  983UDC     C310805  16.684   5.978   4.997  0.2144 -0.6894  0.9387
  983UDC     C410806  16.556   6.062   4.961  0.1402 -0.0957  0.1661
  983UDC     C510807  16.588   6.186   4.874 -0.0130  0.8429 -0.3814
  983UDC     C610808  16.583   6.166   4.722 -0.1516 -0.9057  0.0462
  983UDC     C710809  16.645   6.289   4.659 -0.3236 -0.7501  0.2183
  983UDC     C810810  16.570   6.341   4.535  1.0209 -0.6006 -0.2232
  983UDC     C910811  16.568   6.245   4.416 -1.2477  0.5467 -0.4798
  983UDC    C1010812  16.707   6.200   4.369 -0.1025  1.0592 -1.1457
  983UDC    C1110813  16.701   6.114   4.239 -0.8260 -0.3090 -0.4175
  984UDC     C110814   4.473  11.948   2.202 -0.0222 -1.0014 -0.7123
  984UDC     C210815   4.389  12.073   2.228  0.5205 -0.5088  0.6405
  984UDC     C310816   4.320  12.131   2.100  1.1801 -0.6273  0.3507
  984UDC     C410817   4.243  12.269   2.098 -0.4471  0.1828 -0.7232
  984UDC     C510818   4.206  12.293   1.952 -0.5407 -0.8985  0.2430
  984UDC     C610819   4.079  12.382   1.956  0.0050  0.3458 -0.2142
  984UDC     C710820   4.081  12.525   2.011 -0.3604 -0.0362 -0.3215
  984UDC     C810821   3.972  12.612   1.947 -0.4543 -0.2042 -0.4078
  984UDC     C910822   3.986  12.760   1.996  0.3153  0.5712 -0.3360
  984UDC    C1010823   3.842  12.825   2.033 -1.6331  0.0283  0.3408
  984UDC    C1110824   3.854  12.974   2.009 -0.1619  0.6994  0.9015
  985UDC     C110825  10.929  12.714   6.881  0.2165  0.9445 -0.3133
  985UDC     C210826  10.812  12.807   6.851 -0.6498 -0.7753  0.0092
  985UDC     C310827  10.784  12.806   6.697 -0.0977 -0.3455 -1.1061
  985UDC     C410828  10.757  12.661   6.654 -0.2260 -0.2157  0.2565
  985UDC     C510829  10.766  12.640   6.507  0.0352 -0.1403 -0.4497
  985UDC     C610830  10.654  12.543   6.473  0.2834 -0.1487  0.3956
  985UDC     C710831  10.634  12.527   6.316 -0.3182  0.0100 -1.1148
  985UDC     C810832  10.556  12.641   6.256  0.0774  0.0914 -0.6997
  985UDC     C910833  10.604  12.679   6.120  0.8995 -0.3311  0.5144
  985UDC    C1010834  10.592  12.569   6.014  0.7647 -0.3794  0.4705
  985UDC    C1110835  10.623  12.618   5.870  0.0872 -0.0065 -0.0919
  986UDC     C110836  19.314   4.482   7.052  0.0934  0.0757  0.7117
  986UDC     C210837  19.167   4.443   7.080  0.3533  0.7984 -1.1133
  986UDC     C310838  19.151   4.356   7.206 -0.1729  0.1641 -0.5379
  986UDC     C410839  19.001   4.364   7.231 -0.0390 -0.6397  0.3217
  986UDC     C510840  18.939   4.244   7.303  0.4263 -0.3974  0.1193
  986UDC     C610841  18.838   4.288   7.415 -0.3477 -0.7015  0.1875
  986UDC     C710842  18.693   4.297   7.363 -0.4004 -0.3226 -0.0478
  986UDC     C810843  18.589   4.347   7.460  0.3555  0.1495  0.5449
  986UDC     C910844  18.437   4.336   7.419 -0.0222 -0.3715  1.2345
  986UDC    C1010845  18.389   4.398   7.285 -1.1269 -0.6838  0.2313
  986UDC    C1110846  18.448   4.543   7.256  0.4777 -0.9979  0.5446
  987UDC     C110847  12.746  14.151   9.761 -0.9426 -0.8762  0.0863
  987UDC     C210848  12.612  14.224   9.732 -0.1266  0.6235  1.2850
  987UDC     C310849  12.586  14.279   9.589  0.0689 -0.0736 -0.0639
  987UDC     C410850  12.442  14.296   9.525  0.1828  0.5511  0.1962
  987UDC     C510851  12.450  14.387   9.404 -0.0009  0.1155  0.7383
  987UDC     C610852  12.507  14.524   9.445  1.6543  0.7238  0.0393
  987UDC     C710853  12.394  14.611   9.510  0.6410 -0.0169  0.4854
  987UDC     C810854  12.273  14.632   9.409  0.5599 -0.6185  0.3687
  987UDC     C910855  12.159  14.735   9.449  0.3053 -0.6911  0.1929
  987UDC    C1010856  12.202  14.822   9.575 -0.3032  0.8039  1.4192
  987UDC    C1110857  12.118  14.945   9.622  0.8773 -1.5992 -0.0078
  988UDC     C110858   2.599   9.353   3.013 -0.1225  0.6094  0.6034
  988UDC     C210859   2.445   9.364   3.044 -0.0820  0.2500  0.3837
  988UDC     C310860   2.387   9.226   3.082  0.8730  0.6182 -0.6414
  988UDC     C410861   2.442   9.176   3.219  0.0283 -0.2596 -0.0922
  988UDC     C510862   2.416   9.027   3.243 -0.4129  0.3258 -0.4645
  988UDC     C610863   2.469   8.931   3.132 -0.4178 -0.3370 -0.2921
  988UDC     C710864   2.466   8.785   3.167 -0.1349 -0.6599 -0.4492
  988UDC     C810865   2.332   8.716   3.192  0.4306 -0.2656  0.9765
  988UDC     C910866   2.339   8.565   3.217  0.1452  0.0785 -0.0218
  988UDC    C1010867   2.210   8.496   3.266  0.7633  0.8569 -0.2403
  988UDC    C1110868   2.131   8.591   3.353 -0.6197  0.7192 -0.1722
  989UDC     C110869  18.584  10.990   3.902  0.2450 -0.5500  0.3261
  989UDC     C210870  18.573  11.083   4.024  1.3042  0.5861  0.7924
  989UDC     C310871  18.435  11.154   4.035 -1.1784 -0.3784 -0.2757
  989UDC     C410872  18.431  11.277   4.124  0.7499 -0.0679 -0.2746
  989UDC     C510873  18.503  11.396   4.059  0.6515  1.0873  0.7775
  989UDC     C610874  18.504  11.521   4.152 -1.1617 -0.6840 -0.2672
  989UDC     C710875  18.571  11.639   4.082  0.4889 -0.2099 -0.1622
  989UDC     C810876  18.622  11.759   4.158 -0.4416  0.1068 -1.1732
  989UDC     C910877  18.779  11.761   4.181  0.8410  0.0520  0.4544
  989UDC    C1010878  18.846  11.788   4.044 -0.5326  0.6048  0.6440
  989UDC    C1110879  18.896  11.936   4.038  0.9263  1.7386  0.4320
  990UDC     C110880  16.789  17.713  10.405 -1.0257  0.4275 -0.1920
  990UDC     C210881  16.724  17.744  10.541  0.2002 -0.4248 -0.3453
  990UDC     C310882  16.750  17.646  10.658  0.8883 -0.7109 -0.2892
  990UDC     C410883  16.662  17.671  10.784  0.5197  1.6143  0.2943
  990UDC     C510884  16.518  17.637  10.757  0.9228 -0.4153  0.3246
  990UDC     C610885  16.424  17.647  10.878 -0.7044  0.2681 -0.0225
  990UDC     C710886  16.274  17.630  10.856 -0.2878  0.1516 -1.0087
  990UDC     C810887  16.204  17.502  10.804  0.2541  0.0525 -0.0785
  990UDC     C910888  16.209  17.364  10.875 -0.0355  0.4565  0.0804
  990UDC    C1010889  16.332  17.276  10.832  0.7298 -1.0657 -0.2880
  990UDC    C1110890  16.464  17.294  10.894  0.5488  0.0915 -0.0535
  991UDC     C110891  18.622   8.470  15.484 -0.3073 -0.3368  0.2612
  991UDC     C210892  18.626   8.571  15.366 -0.0140 -0.1626 -0.4591
  991UDC     C310893  18.486   8.630  15.344  0.0640  0.1480  0.7760
  991UDC     C410894  18.485   8.776  15.292 -0.4321 -0.1090  0.3610
  991UDC     C510895  18.352   8.816  15.231 -0.6046 -1.6239  0.9598
  991UDC     C610896  18.376   8.905  15.107 -0.3668 -0.6097  0.5898
  991UDC     C710897  18.280   8.927  14.999 -0.8845 -0.4425  0.2640
  991UDC     C810898  18.294   9.061  14.923  0.1826 -0.1481  0.7548
  991UDC     C910899  18.310   9.189  15.010 -0.3331 -0.5854  1.0133
  991UDC    C1010900  18.193   9.242  15.092  0.4389 -0.9164  1.1438
  991UDC    C1110901  18.214   9.397  15.116  0.0758  1.0182  0.3080
  992UDC     C110902  12.308  10.657   7.930  0.6175 -0.4163 -0.4290
  992UDC     C210903  12.295  10.776   7.843  0.2682 -0.0063  0.9517
  992UDC     C310904  12.350  10.905   7.905 -1.0551  0.3381  0.3094
  992UDC     C410905  12.291  10.936   8.044 -0.4212 -1.1420 -0.6762
  992UDC     C510906  12.308  11.077   8.098 -0.3513  0.0991 -1.3219
  992UDC     C610907  12.411  11.157   8.022  0.2529 -0.6431 -0.3579
  992UDC     C710908  12.421  11.300   8.082 -0.0904  0.2718 -0.8875
  992UDC     C810909  12.560  11.322   8.143  0.3964 -0.5088  0.4590
  992UDC     C910910  12.581  11.469   8.183  0.2749 -0.5886 -0.6957
  992UDC    C1010911  12.690  11.481   8.282 -0.3301 -0.4250 -0.9829
  992UDC    C1110912  12.660  11.437   8.422 -0.6306  0.4380 -0.8062
  993UDC     C110913  19.630   6.805   8.168  0.3151  0.1061 -0.0802
  993UDC     C210914  19.622   6.800   8.325 -0.1600 -0.5903  0.4579
  993UDC     C310915  19.757   6.801   8.401 -0.3674 -0.0465  0.2378
  993UDC     C410916  19.758   6.797   8.552  0.2903 -0.4796 -0.2610
  993UDC     C510917  19.852   6.905   8.605  1.4140 -0.5430  1.0483
  993UDC     C610918  19.767   7.021   8.651  0.2600 -1.0171 -0.2038
  993UDC     C710919  19.830   7.160   8.674  0.3954  0.3364  0.3654
  993UDC     C810920  19.774   7.237   8.799 -0.7146  0.0496  0.8388
  993UDC     C910921  19.857   7.363   8.832 -0.1920  0.3022 -0.4560
  993UDC    C1010922  19.813   7.438   8.962 -0.4257 -1.0541 -0.3852
  993UDC    C1110923  19.909   7.545   9.021  0.4292 -1.2415  0.4087
  994UDC     C110924  18.014   5.967  19.757  0.2560 -0.4785 -1.1036
  994UDC     C210925  18.109   5.856  19.729 -0.1433  1.4178 -0.2706
  994UDC     C310926  18.017   5.742  19.705  0.8150 -0.0366  0.4446
  994UDC     C410927  17.951   5.674  19.828 -0.2153  0.6866  0.4766
  994UDC     C510928  18.062   5.628  19.920 -1.4202  0.3261 -0.3818
  994UDC     C610929  17.991   5.586  20.047  0.0574 -0.3871 -0.0344
  994UDC     C710930  18.012   5.691  20.161  0.8009 -0.6718 -0.2284
  994UDC     C810931  17.932   5.684  20.288 -0.0468  1.4597 -0.4531
  994UDC     C910932  17.779   5.688  20.272  0.0810 -1.6256  1.0995
  994UDC    C1010933  17.704   5.720  20.402 -0.7121  1.0816 -1.0996
  994UDC    C1110934  17.703   5.873  20.432 -0.3080 -0.3621  0.5706
  995UDC     C110935  16.988   1.427  10.673  0.0002  0.9124 -0.4748
  995UDC     C210936  16.869   1.339  10.705  0.5696  1.0206 -0.2650
  995UDC     C310937  16.904   1.219  10.798 -0.2355 -0.7289  0.3619
  995UDC     C410938  16.791   1.161  10.875  0.7000 -0.2546  0.1448
  995UDC     C510939  16.827   1.042  10.975 -0.0411  0.2225 -0.4147
  995UDC     C610940  16.938   0.960  10.914 -0.2390 -2.0119  0.3627
  995UDC     C710941  16.969   0.835  10.999 -0.0356 -0.0316 -1.0165
  995UDC     C810942  17.007   0.699  10.947  0.9993  0.0361  0.3877
  995UDC     C910943  17.072   0.597  11.043  0.4202 -0.3294 -0.1689
  995UDC    C1010944  17.087   0.456  10.981  0.2297  0.1698 -0.4055
  995UDC    C1110945  17.136   0.435  10.835  0.1617  1.4052  0.5619
  996UDC     C110946   2.479  11.358   3.432 -0.5693  0.4923 -0.1086
  996UDC     C210947   2.334  11.326   3.402 -0.6800  0.1628  0.1424
  996UDC     C310948   2.290  11.195   3.473  0.2477  0.1554  0.5367
  996UDC     C410949   2.154  11.137   3.417 -0.1016 -0.4435 -0.4343
  996UDC     C510950   2.131  10.998   3.478  0.6397  0.2480  0.1846
  996UDC     C610951   2.176  10.867   3.404  0.5946 -1.2007 -0.6205
  996UDC     C710952   2.074  10.750   3.390  0.5738 -0.8358 -0.5586
  996UDC     C810953   1.976  10.789   3.280 -0.0046 -0.1009 -0.1781
  996UDC     C910954   2.038  10.789   3.137 -0.3307  0.6104  0.0405
  996UDC    C1010955   2.102  10.915   3.078  1.1839 -0.3104  0.7926
  996UDC    C1110956   2.005  11.026   3.031  0.5435  0.1095 -0.0394
  997UDC     C110957  17.595   1.949  19.335  0.6496  0.0586 -0.3884
  997UDC     C210958  17.591   1.814  19.267  0.2210  0.7396  0.3221
  997UDC     C310959  17.632   1.804  19.122 -1.2386  0.2788 -0.2650
  997UDC     C410960  17.604   1.670  19.045 -0.7366 -0.2137  0.3768
  997UDC     C510961  17.696   1.557  19.097  0.0615  0.8150 -0.4683
  997UDC     C610962  17.840   1.577  19.054  0.6673  0.5947  0.3019
  997UDC     C710963  17.905   1.439  19.068  0.1042 -1.0290  1.3666
  997UDC     C810964  17.857   1.354  18.948  0.6747  0.4186  0.4062
  997UDC     C910965  17.913   1.213  18.958 -1.1697  0.0909 -0.6485
  997UDC    C1010966  18.068   1.215  18.992  0.2115  0.0931 -0.9756
  997UDC    C1110967  18.147   1.083  19.001 -0.1746  0.4541 -0.2524
  998UDC     C110968  12.845  15.939   5.657  0.0540 -0.1809 -1.4961
  998UDC     C210969  12.938  15.839   5.719 -0.9691 -0.4217  0.1126
  998UDC     C310970  13.022  15.754   5.622  0.1572 -0.7836  0.3498
  998UDC     C410971  13.074  15.624   5.683 -0.1021  0.3605 -0.5421
  998UDC     C510972  13.184  15.572   5.592 -0.0585 -0.8501  1.0185
  998UDC     C610973  13.238  15.442   5.646  0.4142 -0.5324  0.5440
  998UDC     C710974  13.359  15.365   5.592  0.3128 -0.3663 -0.4310
  998UDC     C810975  13.475  15.457   5.645 -0.6785  0.8853  0.7390
  998UDC     C910976  13.540  15.415   5.776  0.0262 -0.1325 -0.8635
  998UDC    C1010977  13.643  15.496   5.855  0.0170 -0.4416  0.7287
  998UDC    C1110978  13.781  15.530   5.793  0.0810  0.1084  0.5901
  999UDC     C110979  14.889   1.405  11.143  0.9178  0.1651  0.0553
  999UDC     C210980  14.835   1.425  11.001 -1.2674 -0.2238 -1.3711
  999UDC     C310981  14.767   1.313  10.927 -1.3330  0.5864  0.2937
  999UDC     C410982  14.738   1.177  10.981 -1.3789 -0.6862 -0.6519
  999UDC     C510983  14.640   1.084  10.920  0.3936 -0.5533 -0.0512
  999UDC     C610984  14.608   0.947  10.979  0.4337 -0.8544  0.5419
  999UDC     C710985  14.726   0.859  11.020 -0.3791 -0.4788 -0.1108
  999UDC     C810986  14.744   0.855  11.176  0.3025  0.2220  0.1958
  999UDC     C910987  14.876   0.793  11.228 -0.3714  0.9205  0.2737
  999UDC    C1010988  14.905   0.660  11.152 -0.8909 -0.8625  0.6651
  999UDC    C1110989  15.029   0.579  11.205  1.0183 -0.5258  0.5105
 1000UDC     C110990  19.398  17.190  10.633  0.2292  0.2893 -0.3231
 1000UDC     C210991  19.249  17.217  10.665 -0.0946 -0.4278  0.1355
 1000UDC     C310992  19.235  17.266  10.815  0.0218  0.1403  0.2523
 1000UDC     C410993  19.341  17.369  10.847 -0.4235  0.1642 -0.7192
 1000UDC     C510994  19.344  17.400  10.999 -0.2068  0.2476 -0.2587
 1000UDC     C610995  19.453  17.501  11.035  0.2162  0.6447 -0.1675
 1000UDC     C710996  19.445  17.530  11.188 -0.8516 -0.8382  1.1813
 1000UDC     C810997  19.302  17.532  11.244 -0.0277  1.1318 -0.3268
 1000UDC     C910998  19.290  17.604  11.378  0.2858  0.1681 -0.0259
 1000UDC    C1010999  19.206  17.728  11.355  0.1463  0.1650  0.4317
 1000UDC    C1111000  19.147  17.792  11.477  1.2658  0.0685  0.4283
 1001UDC     C111001   9.412  15.548   9.183  1.1985  0.1771  0.2089
 1001UDC     C211002   9.539  15.632   9.209  0.3243 -0.0912 -0.7063
 1001UDC     C311003   9.668  15.570   9.265  0.5050 -0.1788  0.1992
 1001UDC     C411004   9.702  15.566   9.415 -0.5608 -0.7548 -0.3131
 1001UDC     C511005   9.587  15.543   9.513 -0.4540 -0.1569 -0.0107
 1001UDC     C611006   9.613  15.579   9.661  0.3504 -0.3923 -0.2344
 1001UDC     C711007   9.546  15.498   9.772  0.7585 -0.7937 -0.4412
 1001UDC     C811008   9.625  15.366   9.802 -1.1952 -0.6214 -0.4772
 1001UDC     C911009   9.625  15.311   9.947 -0.4825 -0.0762 -0.5882
 1001UDC    C1011010   9.730  15.385  10.037 -0.4450 -0.6341  0.1481
 1001UDC    C1111011   9.731  15.361  10.191  0.6271 -1.0880 -0.3849
 1002UDC     C111012  18.342  16.273  12.114  1.1798  0.0190  0.1746
 1002UDC     C211013  18.397  16.398  12.180  0.5672  0.5635  0.0896
 1002UDC     C311014  18.530  16.448  12.117 -0.2396  1.3152 -0.1168
 1002UDC     C411015  18.571  16.585  12.172 -0.3813  0.2963 -0.9002
 1002UDC     C511016  18.592  16.635  12.317 -0.4595 -0.9064  0.2120
 1002UDC     C611017  18.643  16.519  12.402 -0.5455 -0.4054  0.0802
 1002UDC     C711018  18.676  16.557  12.549 -1.0207  1.5340 -0.0508
 1002UDC     C811019  18.724  16.438  12.629 -0.0092  0.4461  0.6345
 1002UDC     C911020  18.639  16.313  12.596  0.5532  0.5279 -0.5134
 1002UDC    C1011021  18.514  16.331  12.682 -0.4860  0.1648  0.7514
 1002UDC    C1111022  18.405  16.224  12.646 -0.2616 -0.4073  0.1670
 1003UDC     C111023  11.846  13.355  18.360  0.1019  0.1804  0.0537
 1003UDC     C211024  11.944  13.455  18.301  0.8201  0.8814  0.1663
 1003UDC     C311025  11.877  13.588  18.265 -0.3811  0.5624 -0.1116
 1003UDC     C411026  11.959  13.708  18.204  0.2721  0.2589  0.0303
 1003UDC     C511027  11.858  13.808  18.145  0.3010 -0.6436 -0.0641
 1003UDC     C611028  11.901  13.934  18.075 -0.6315 -1.3721  0.2255
 1003UDC     C711029  12.005  14.016  18.162 -0.1392  0.1435  0.3822
 1003UDC     C811030  11.946  14.128  18.257  1.0776  0.3228 -0.6103
 1003UDC     C911031  12.032  14.222  18.341 -0.1138  0.1876  0.8027
 1003UDC    C1011032  11.977  14.345  18.406 -0.5095 -0.7048 -0.9051
 1003UDC    C1111033  11.867  14.399  18.312 -0.2173 -0.2921  0.0714
 1004UDC     C111034   4.062  10.144  10.932  0.2154  0.5636  0.3034
 1004UDC     C211035   4.168  10.260  10.964  0.1058  0.4008 -2.1566
 1004UDC     C311036   4.293  10.193  11.018  0.1103 -0.2747  0.0892
 1004UDC     C411037   4.294  10.057  10.956 -0.5877  0.2034  1.5338
 1004UDC     C511038   4.439   9.998  10.936  0.2402 -0.6511  0.9330
 1004UDC     C611039   4.444   9.858  10.864 -0.3323 -0.0090 -0.6411
 1004UDC     C711040   4.376   9.742  10.940 -0.8157  0.1445  0.9910
 1004UDC     C811041   4.419   9.603  10.887  0.3470  0.1608 -0.0768
 1004UDC     C911042   4.391   9.562  10.746 -0.1018  0.5444 -0.3478
 1004UDC    C1011043   4.440   9.422  10.725 -1.0377 -0.7832 -0.6906
 1004UDC    C1111044   4.354   9.303  10.743 -1.4297  0.5602 -0.3737
 1005UDC     C111045   0.712   1.336  12.852  0.7724 -0.1052  0.6551
 1005UDC     C211046   0.662   1.479  12.899 -0.0947  0.1925 -1.6894
 1005UDC     C311047   0.763   1.588  12.854  0.2703 -0.0377  0.3572
 1005UDC     C411048   0.788   1.717  12.936 -0.3285 -0.3176  0.3752
 1005UDC     C511049   0.905   1.818  12.895 -0.9991  0.5781 -0.4611
 1005UDC     C611050   0.913   1.937  12.992 -0.1224  0.1108 -0.4307
 1005UDC     C711051   0.981   2.064  12.940  0.1454  0.0634 -0.6147
 1005UDC     C811052   1.015   2.188  13.026 -1.1498 -0.3512 -0.2149
 1005UDC     C911053   0.900   2.276  13.060 -0.5029 -0.7472  1.2406
 1005UDC    C1011054   0.777   2.282  12.967 -0.7167 -0.5538  0.0706
 1005UDC    C1111055   0.676   2.379  13.024 -0.3694 -0.6010  0.1885
 1006UDC     C111056  10.699  14.433   9.868 -0.3455 -0.0511 -0.3250
 1006UDC     C211057  10.764  14.383  10.002 -0.1829  0.4266 -0.3806
 1006UDC     C311058  10.696  14.387  10.138 -0.2269 -0.5124 -0.9327
 1006UDC     C411059  10.715  14.255  10.216 -0.1773 -0.3836  0.1698
 1006UDC     C511060  10.620  14.164  10.133  0.3385 -0.3565  0.2992
 1006UDC     C611061  10.620  14.023  10.188 -0.8051  1.0640 -1.0083
 1006UDC     C711062  10.496  13.975  10.262  0.0419  0.5049 -0.0256
 1006UDC     C811063  10.516  13.835  10.320  0.6390  0.4007  1.1564
 1006UDC     C911064  10.411  13.793  10.421  0.0470  0.2536  0.1462
 1006UDC    C1011065  10.440  13.662  10.490 -0.4385  1.0529 -0.0123
 1006UDC    C1111066  10.534  13.671  10.617  0.1674 -0.1146 -0.0140
 1007UDC     C111067  18.289   6.598  17.523  0.1451 -0.0497 -0.4142
 1007UDC     C211068  18.273   6.445  17.528  0.3760  0.1149  0.6034
 1007UDC     C311069  18.415   6.385  17.549  0.5219  0.0345 -0.2038
 1007UDC     C411070  18.424   6.237  17.589  0.9525 -0.9399 -0.2402
 1007UDC     C511071  18.564   6.176  17.568 -0.3956 -0.2586 -0.4595
 1007UDC     C611072  18.602   6.184  17.417  0.1757  0.4857 -0.0108
 1007UDC     C711073  18.759   6.194  17.414 -0.5848 -0.2565  0.2855
 1007UDC     C811074  18.800   6.314  17.498  0.5544 -0.0316  0.2417
 1007UDC     C911075  18.947   6.335  17.480 -0.4816  0.0250  0.1539
 1007UDC    C1011076  19.015   6.458  17.541  0.3552  0.8389  0.4694
 1007UDC    C1111077  18.974   6.593  17.488  0.2503 -0.9341  0.0395
 1008UDC     C111078   9.998  10.163   8.600  0.5029  1.0001 -0.1525
 1008UDC     C211079   9.888  10.221   8.504 -1.4612  0.1570 -0.2832
 1008UDC     C311080   9.746  10.168   8.528  0.0673 -0.7022 -0.1590
 1008UDC     C411081   9.619  10.235   8.463 -0.7649 -0.3311  0.0086
 1008UDC     C511082   9.491  10.154   8.479 -0.7231  0.2836 -0.1660
 1008UDC     C611083   9.360  10.226   8.471  0.2267 -0.4992 -0.3405
 1008UDC     C711084   9.343  10.300   8.603 -1.1759 -0.4126 -0.3266
 1008UDC     C811085   9.215  10.378   8.620  1.0666 -0.5575  0.3294
 1008UDC     C911086   9.200  10.476   8.495 -1.0287  0.1708 -0.2015
 1008UDC    C1011087   9.082  10.560   8.487  0.7497 -0.3141  0.3868
 1008UDC    C1111088   8.973  10.460   8.451  0.4411  0.5507  0.4478
 1009UDC     C111089  12.852   8.305   3.317 -1.0102  0.6614 -0.3537
 1009UDC     C211090  12.762   8.410   3.256  0.4972 -1.1536  1.2326
 1009UDC     C311091  12.829   8.545   3.219  0.5490  1.1714 -0.2088
 1009UDC     C411092  12.816   8.655   3.324  0.0637  0.6483 -0.2209
 1009UDC     C511093  12.904   8.771   3.287 -0.5204  0.1463  0.0297
 1009UDC     C611094  12.836   8.897   3.260  0.2496 -0.2018 -0.4763
 1009UDC     C711095  12.805   8.985   3.383 -0.4777  0.0928  0.9048
 1009UDC     C811096  12.714   9.098   3.329  0.1775  1.2273 -0.0147
 1009UDC     C911097  12.657   9.189   3.438  0.2967 -0.3160  0.5179
 1009UDC    C1011098  12.739   9.314   3.479 -0.0645 -0.4128  0.6783
 1009UDC    C1111099  12.773   9.408   3.364  0.3820 -1.0797 -0.9655
 1010UDC     C111100   3.149   3.631  16.372  0.1164  0.3469  0.0834
 1010UDC     C211101   3.099   3.502  16.307  0.1591 -0.0135  0.4068
 1010UDC     C311102   3.055   3.401  16.410  0.1014  1.4037 -0.8330
 1010UDC     C411103   2.963   3.308  16.335  0.2013  0.3797  0.1186
 1010UDC     C511104   2.825   3.365  16.294 -1.3684 -0.1899  0.1081
 1010UDC     C611105   2.712   3.269  16.257  1.3530 -0.6286  0.1155
 1010UDC     C711106   2.671   3.185  16.385  0.6129 -0.2851  0.0187
 1010UDC     C811107   2.743   3.054  16.418  0.3777  0.0745  0.4434
 1010UDC     C911108   2.705   2.980  16.549  0.9734 -0.8485 -0.8609
 1010UDC    C1011109   2.567   2.913  16.519  0.3010  0.4301  0.6258
 1010UDC    C1111110   2.490   2.839  16.621 -0.0099  0.3544  0.1525
 1011UDC     C111111   4.520  11.320  11.017  0.7184 -0.5132 -0.8405
 1011UDC     C211112   4.583  11.223  10.916 -0.0917 -0.0871  0.0119
 1011UDC     C311113   4.590  11.292  10.779 -0.3087 -0.1981 -0.5784
 1011UDC     C411114   4.639  11.185  10.679  0.0905 -0.4242  0.7206
 1011UDC     C511115   4.770  11.124  10.709 -0.2994  1.1193  1.4018
 1011UDC     C611116   4.811  11.003  10.620 -1.0432  0.1203 -0.3560
 1011UDC     C711117   4.711  10.883  10.624 -1.0673  1.0493  0.1548
 1011UDC     C811118   4.684  10.826  10.481  0.0608  0.7100 -0.0848
 1011UDC     C911119   4.545  10.752  10.486  0.0304  0.1205  0.0488
 1011UDC    C1011120   4.427  10.837  10.496  1.0485 -0.8791 -0.5767
 1011UDC    C1111121   4.293  10.760  10.520  0.3440 -0.3607  0.6809
 1012UDC     C111122  13.072  16.157   1.710  0.0191 -1.0288 -1.6561
 1012UDC     C211123  13.144  16.277   1.643  0.9004 -0.2506 -0.2898
 1012UDC     C311124  13.107  16.269   1.495 -0.5683 -0.2180 -0.5901
 1012UDC     C411125  13.163  16.397   1.418 -1.3788 -0.5893  0.4452
 1012UDC     C511126  13.050  16.480   1.341  0.2544  0.2911 -0.6023
 1012UDC     C611127  13.021  16.416   1.199  0.3233  0.2470 -0.6042
 1012UDC     C711128  12.885  16.474   1.152 -0.7727 -0.1634  0.2162
 1012UDC     C811129  12.800  16.392   1.049  0.7534  0.6369 -0.3000
 1012UDC     C911130  12.877  16.387   0.917 -0.1945  0.1117  0.4190
 1012UDC    C1011131  12.873  16.518   0.838 -0.1832  0.0062 -0.1244
 1012UDC    C1111132  12.731  16.545   0.781 -0.5561  0.5052 -0.6780
 1013UDC     C111133  12.971   8.357   4.272 -1.9488  0.7923  0.1299
 1013UDC     C211134  13.077   8.395   4.385  0.3299 -0.4785  1.3950
 1013UDC     C311135  13.086   8.284   4.493  0.3268  0.1312  0.9452
 1013UDC     C411136  13.176   8.320   4.607 -0.6955 -0.0729  0.2149
 1013UDC     C511137  13.117   8.436   4.684  0.3867 -1.3157  1.0018
 1013UDC     C611138  13.188   8.493   4.808 -0.7157  0.1801 -0.0243
 1013UDC     C711139  13.134   8.632   4.859 -0.1223  0.8951 -0.5070
 1013UDC     C811140  12.973   8.626   4.877 -1.1962  0.0190  0.5841
 1013UDC     C911141  12.922   8.697   5.002 -0.1876  0.0213 -0.3586
 1013UDC    C1011142  12.770   8.715   5.001 -0.2112  0.7135 -0.6685
 1013UDC    C1111143  12.697   8.586   5.003  0.4985  0.0616 -0.5892
 1014UDC     C111144   5.449   3.495  16.102  0.2655  0.0998 -0.1065
 1014UDC     C211145   5.508   3.426  16.230 -0.4020 -0.5113  0.7916
 1014UDC     C311146   5.578   3.541  16.317  0.1552 -1.0595  0.6393
 1014UDC     C411147   5.627   3.496  16.454 -0.7814  0.5403  0.8394
 1014UDC     C511148   5.774   3.548  16.473 -0.0496  0.6348  0.8141
 1014UDC     C611149   5.891   3.456  16.430  0.1810  0.6452 -0.7402
 1014UDC     C711150   6.029   3.523  16.472 -0.2005  0.7057  0.7001
 1014UDC     C811151   6.084   3.631  16.375 -0.1862  1.2375  0.1942
 1014UDC     C911152   6.216   3.682  16.444  0.9646  0.3266 -0.4238
 1014UDC    C1011153   6.306   3.785  16.369  0.4392 -0.2398 -0.9874
 1014UDC    C1111154   6.453   3.816  16.419  0.3188  0.0615  0.5306
 1015UDC     C111155   5.687  13.752   7.997 -0.7223  1.0530 -0.6128
 1015UDC     C211156   5.727  13.655   8.107  0.2894 -1.2140  0.7375
 1015UDC     C311157   5.873  13.691   8.145 -0.7006  0.5888  0.6900
 1015UDC     C411158   5.973  13.582   8.094 -0.1524  0.3897 -0.1675
 1015UDC     C511159   5.981  13.463   8.186 -0.5010  0.9702  0.1833
 1015UDC     C611160   5.981  13.495   8.331  0.2180  0.7912 -0.8509
 1015UDC     C711161   6.082  13.581   8.402 -0.1763 -0.4768 -0.3666
 1015UDC     C811162   6.043  13.622   8.541  0.0726 -0.4885  0.2730
 1015UDC     C911163   6.127  13.737   8.581  0.0420 -0.1281 -0.7914
 1015UDC    C1011164   6.066  13.874   8.549  0.2761 -0.2933 -0.1843
 1015UDC    C1111165   6.141  14.004   8.593 -0.4946  0.4728 -0.3231
 1016UDC     C111166  11.673   1.755   8.064 -0.7099 -0.8228 -0.0591
 1016UDC     C211167  11.577   1.668   8.151 -0.2320 -0.4619  0.3738
 1016UDC     C311168  11.437   1.650   8.084 -0.7571 -0.1534  0.5267
 1016UDC     C411169  11.340   1.774   8.083 -1.1116  0.1495 -1.1214
 1016UDC     C511170  11.228   1.754   7.981 -0.8739  0.7418 -0.5298
 1016UDC     C611171  11.304   1.730   7.851  0.1252 -0.3683 -0.0995
 1016UDC     C711172  11.240   1.771   7.714  0.0162 -0.9961 -0.0820
 1016UDC     C811173  11.325   1.721   7.603  0.3919  0.9596  0.9532
 1016UDC     C911174  11.263   1.710   7.459  1.1229 -0.2573  0.0542
 1016UDC    C1011175  11.295   1.608   7.353  0.6170 -1.7142 -0.5969
 1016UDC    C1111176  11.281   1.468   7.393  0.1065 -1.7512  0.1995
 1017UDC     C111177   2.806   8.734  10.090  0.2855 -0.6532  1.0333
 1017UDC     C211178   2.881   8.771   9.961  0.5005 -0.6060  0.8351
 1017UDC     C311179   2.972   8.893   9.982  0.2814  0.3762  0.8633
 1017UDC     C411180   3.028   8.962   9.852  0.6045  0.1199  0.2569
 1017UDC     C511181   3.006   9.113   9.844 -0.3935  1.5847  1.0178
 1017UDC     C611182   3.005   9.156   9.696  0.9003  0.3963 -0.5201
 1017UDC     C711183   2.870   9.112   9.634  0.5356  0.3597  1.0049
 1017UDC     C811184   2.840   9.119   9.477  0.8393  0.8952 -0.7677
 1017UDC     C911185   2.751   9.236   9.440  0.0926  0.8772 -0.7958
 1017UDC    C1011186   2.641   9.183   9.347 -0.3427  0.1459 -0.8441
 1017UDC    C1111187   2.526   9.126   9.425  0.9742 -0.2735 -0.2828
 1018UDC     C111188   9.935   2.922  10.895  0.7929  0.4732 -0.1841
 1018UDC     C211189   9.836   2.882  10.786  1.0965  0.1554 -0.0673
 1018UDC     C311190   9.916   2.805  10.683 -0.2479  0.1895  2.0267
 1018UDC     C411191   9.833   2.747  10.566  0.3265  1.0361  1.3255
 1018UDC     C511192   9.913   2.676  10.458 -0.1334  0.2021  0.6025
 1018UDC     C611193   9.851   2.561  10.376 -0.9857 -0.7788  0.8240
 1018UDC     C711194   9.946   2.498  10.271 -0.1008  0.3376 -0.0533
 1018UDC     C811195  10.095   2.512  10.285 -1.4109  1.2103 -0.2336
 1018UDC     C911196  10.183   2.442  10.177 -0.5815 -0.6458  0.0823
 1018UDC    C1011197  10.332   2.493  10.189 -0.3385  0.1648 -0.3520
 1018UDC    C1111198  10.385   2.418  10.317  0.5705 -0.1521 -0.0526
 1019UDC     C111199  11.373   3.837  11.900  0.1557  0.5200  0.5392
 1019UDC     C211200  11.455   3.913  12.001  0.2172  0.0383 -1.0782
 1019UDC     C311201  11.601   3.924  11.963  0.3246  0.2935 -0.3452
 1019UDC     C411202  11.636   4.069  11.922  0.1095 -0.8420 -0.1383
 1019UDC     C511203  11.792   4.088  11.908  0.9373  1.3377  0.4662
 1019UDC     C611204  11.873   4.004  11.809 -1.0818  0.1395 -0.2643
 1019UDC     C711205  12.018   4.054  11.796 -0.6527 -0.6951  0.3636
 1019UDC     C811206  12.115   3.944  11.767  0.1550  0.5889 -0.9388
 1019UDC     C911207  12.067   3.866  11.644 -0.7872 -0.4069  0.0635
 1019UDC    C1011208  12.184   3.819  11.563 -0.1185 -0.8649  0.2415
 1019UDC    C1111209  12.139   3.730  11.450  0.2018 -0.1044 -0.4072
 1020UDC     C111210   7.891   3.973   7.797 -0.2438 -0.1092  0.8783
 1020UDC     C211211   7.861   4.120   7.845  0.5027 -0.4343  0.1835
 1020UDC     C311212   7.707   4.143   7.828  0.2388 -0.1930  0.4604
 1020UDC     C411213   7.661   4.106   7.682 -0.0208  0.7900  0.3459
 1020UDC     C511214   7.512   4.109   7.654 -0.2334  0.4290 -1.0149
 1020UDC     C611215   7.465   4.035   7.527 -0.2516 -0.1131 -0.4312
 1020UDC     C711216   7.443   3.890   7.556  0.0059 -0.0222 -0.5356
 1020UDC     C811217   7.400   3.811   7.435  0.0701 -0.5227 -0.1956
 1020UDC     C911218   7.498   3.771   7.319  0.1080 -0.4666  0.7321
 1020UDC    C1011219   7.410   3.704   7.210 -0.8994 -0.6071  0.4314
 1020UDC    C1111220   7.321   3.591   7.272  0.2727 -0.2817 -0.2304
 1021UDC     C111221  10.535   1.811  13.493 -0.7492 -0.4706 -0.8218
 1021UDC     C211222  10.574   1.939  13.574 -0.2412 -0.8932 -1.1076
 1021UDC     C311223  10.682   2.036  13.530  0.0165 -0.0814 -0.0127
 1021UDC     C411224  10.721   2.156  13.618 -0.5646 -0.0165  0.3219
 1021UDC     C511225  10.694   2.296  13.565 -0.5701 -0.7155 -0.6562
 1021UDC     C611226  10.756   2.411  13.659  0.3828  0.1056  0.0960
 1021UDC     C711227  10.752   2.546  13.592  0.2457 -0.0540  0.0821
 1021UDC     C811228  10.808   2.663  13.672  0.1595 -0.1468  0.2187
 1021UDC     C911229  10.879   2.766  13.584 -0.5283 -1.2524  0.4352
 1021UDC    C1011230  10.787   2.888  13.564  0.3839  0.3726  0.5102
 1021UDC    C1111231  10.650   2.882  13.488  0.1326  0.3356 -0.2464
 1022UDC     C111232   2.700  14.911   5.923 -0.1099 -0.1962  0.1224
 1022UDC     C211233   2.631  14.792   5.979  0.0706 -0.3735 -0.9375
 1022UDC     C311234   2.478  14.816   5.989 -0.3925 -0.6940 -0.6000
 1022UDC     C411235   2.393  14.766   5.875  0.0043 -0.3129 -0.5187
 1022UDC     C511236   2.244  14.819   5.873 -0.2472  0.1697 -0.2338
 1022UDC     C611237   2.172  14.785   6.008 -0.1727 -0.7441  0.0367
 1022UDC     C711238   2.127  14.639   6.036 -0.5831 -0.8978 -0.4755
 1022UDC     C811239   2.108  14.628   6.191  0.0101 -0.0009 -0.0333
 1022UDC     C911240   1.971  14.675   6.245 -0.7004 -0.1168 -0.2507
 1022UDC    C1011241   1.975  14.680   6.397  0.3974  0.3825  0.8437
 1022UDC    C1111242   1.870  14.759   6.489 -0.3272 -0.2094  0.3877
 1023UDC     C111243   2.020   3.600   0.227 -0.8239 -0.6119  0.5143
 1023UDC     C211244   2.174   3.611   0.193  0.2337  0.7215 -0.0943
 1023UDC     C311245   2.277   3.588   0.310  0.3946  0.7392 -0.8480
 1023UDC     C411246   2.303   3.439   0.349  0.2194 -1.1260  0.9823
 1023UDC     C511247   2.375   3.404   0.476  0.2710  0.2261  0.1858
 1023UDC     C611248   2.318   3.267   0.520 -0.8521 -0.5653  1.1753
 1023UDC     C711249   2.405   3.218   0.646 -0.0717  0.9302  0.5997
 1023UDC     C811250   2.442   3.332   0.736 -0.6793 -0.2286  0.4390
 1023UDC     C911251   2.538   3.272   0.847  0.4342 -0.3252  1.0461
 1023UDC    C1011252   2.632   3.369   0.920 -0.6289  1.3687 -0.2787
 1023UDC    C1111253   2.747   3.443   0.845 -0.8757  0.6988 -0.4380
 1024UDC     C111254   1.895  12.297   6.121 -0.9006 -0.0793  0.0144
 1024UDC     C211255   1.780  12.237   6.208  0.4152  0.3405 -0.5631
 1024UDC     C311256   1.701  12.345   6.270 -0.3386  0.0490  1.0905
 1024UDC     C411257   1.590  12.291   6.353  0.0735 -0.1032 -0.6466
 1024UDC     C511258   1.480  12.395   6.400  0.3764  0.0361 -0.1567
 1024UDC     C611259   1.475  12.512   6.298 -0.4322 -0.6212 -0.1785
 1024UDC     C711260   1.349  12.607   6.321  0.0497  0.1712 -0.6152
 1024UDC     C811261   1.216  12.519   6.333 -0.6649 -0.1410  0.1497
 1024UDC     C911262   1.095  12.586   6.392 -0.0904 -1.0115 -0.2312
 1024UDC    C1011263   0.960  12.509   6.403  0.2995  0.1934  0.0700
 1024UDC    C1111264   0.936  12.425   6.530 -0.2685  0.8992  0.8112
 1025UDC     C111265  14.294   1.208  19.025 -0.1798  1.0842 -0.0537
 1025UDC     C211266  14.209   1.332  19.031  0.0403 -0.0117 -0.3095
 1025UDC     C311267  14.071   1.309  19.094  0.0207  0.4286  0.7950
 1025UDC     C411268  14.009   1.429  19.170  0.5400  0.2099  0.4982
 1025UDC     C511269  13.864   1.390  19.196 -0.0805  0.6413  0.0223
 1025UDC     C611270  13.794   1.322  19.085  0.1726 -0.0870 -0.2595
 1025UDC     C711271  13.758   1.422  18.972  0.0591 -0.3855  0.3236
 1025UDC     C811272  13.710   1.369  18.834  0.1175 -0.1723  0.0621
 1025UDC     C911273  13.628   1.460  18.747  0.4628  0.4339 -0.0251
 1025UDC    C1011274  13.575   1.404  18.607  0.5939  0.1890  0.8230
 1025UDC    C1111275  13.486   1.503  18.532  1.4317 -0.3917  0.3500
 1026UDC     C111276  15.690   0.080   6.783  0.2116 -0.1338  0.1298
 1026UDC     C211277  15.658  -0.030   6.883 -0.4130  0.4149 -1.6730
 1026UDC     C311278  15.615  -0.165   6.844  0.1087  0.9150 -0.3363
 1026UDC     C411279  15.460  -0.188   6.847  0.4495  0.5317  1.4193
 1026UDC     C511280  15.402  -0.330   6.848 -0.2346 -1.1976  0.0158
 1026UDC     C611281  15.409  -0.370   6.702  0.6380 -0.0319 -0.2430
 1026UDC     C711282  15.380  -0.518   6.676 -0.7330  0.7672  1.4357
 1026UDC     C811283  15.240  -0.536   6.614 -0.8242 -0.8041  1.0316
 1026UDC     C911284  15.119  -0.536   6.704 -0.4576  0.4750  0.2745
 1026UDC    C1011285  14.996  -0.568   6.619  0.6224  0.2332 -0.3714
 1026UDC    C1111286  14.897  -0.675   6.683  1.1879  0.1085  0.1745
 1027UDC     C111287  12.402   0.564   8.450  0.3030  1.2371 -0.5705
 1027UDC     C211288  12.461   0.456   8.357 -0.3030  0.6766  0.1013
 1027UDC     C311289  12.385   0.316   8.354  0.2102 -0.2285 -0.7018
 1027UDC     C411290  12.391   0.233   8.482  0.2943  0.5919 -1.1223
 1027UDC     C511291  12.331   0.098   8.464 -0.7288  1.4921 -0.1124
 1027UDC     C611292  12.416   0.018   8.361 -0.6923 -1.1641 -1.0126
 1027UDC     C711293  12.469  -0.127   8.384 -0.3785  1.0314  0.4174
 1027UDC     C811294  12.372  -0.248   8.389  1.5936 -0.4381  0.9487
 1027UDC     C911295  12.445  -0.358   8.469  0.0072 -1.0987 -0.0027
 1027UDC    C1011296  12.356  -0.443   8.556 -1.3155 -0.4139  1.0997
 1027UDC    C1111297  12.298  -0.381   8.684  1.0260  0.7284  1.3933
 1028UDC     C111298  11.244  14.509  17.169 -0.0838 -0.5964 -0.9333
 1028UDC     C211299  11.247  14.652  17.230  0.6497  0.0686 -0.6419
 1028UDC     C311300  11.355  14.759  17.201  0.6499  1.3273 -0.1910
 1028UDC     C411301  11.385  14.871  17.310 -0.9501  0.4921 -0.3213
 1028UDC     C511302  11.450  14.998  17.254 -0.3246 -0.9108 -0.9647
 1028UDC     C611303  11.542  15.086  17.337  0.0806  0.4929  1.2691
 1028UDC     C711304  11.653  15.012  17.418  1.5133  0.2387  0.3137
 1028UDC     C811305  11.640  15.053  17.561  0.6564  0.5347  0.9791
 1028UDC     C911306  11.521  14.989  17.644  0.3936  0.9421  0.0312
 1028UDC    C1011307  11.463  15.053  17.771 -0.4330  0.0205 -0.2605
 1028UDC    C1111308  11.575  15.143  17.831  1.4512 -0.6511 -0.9376
 1029UDC     C111309  17.796   3.757   1.623  0.3491 -0.2975 -1.3640
 1029UDC     C211310  17.839   3.665   1.514  1.3019  0.8355  0.4937
 1029UDC     C311311  17.989   3.643   1.492 -1.3138 -0.6309 -1.0355
 1029UDC     C411312  18.009   3.525   1.406 -1.1155  0.2875  0.0372
 1029UDC     C511313  18.022   3.393   1.484  0.4092 -0.0702  0.2745
 1029UDC     C611314  17.986   3.292   1.377  0.8860  0.8807 -0.5196
 1029UDC     C711315  17.851   3.318   1.303  0.6328  0.0800  0.4909
 1029UDC     C811316  17.790   3.213   1.215 -0.3875 -0.0333  0.1629
 1029UDC     C911317  17.800   3.069   1.270 -1.1288  0.4057  0.6833
 1029UDC    C1011318  17.749   2.951   1.188  0.4463 -0.3693  0.0664
 1029UDC    C1111319  17.599   2.950   1.178 -0.4191  0.9325 -0.6437
 1030UDC     C111320   5.667  13.102   7.919 -0.9461 -0.2104 -0.0778
 1030UDC     C211321   5.716  12.999   8.020 -0.7448 -0.0640 -0.5422
 1030UDC     C311322   5.866  12.960   8.021  0.1380  0.7082  0.4165
 1030UDC     C411323   5.968  13.064   8.059  0.1307  0.3941 -0.3283
 1030UDC     C511324   6.115  13.027   8.047 -0.7929  0.7330 -1.2159
 1030UDC     C611325   6.185  12.936   8.154 -0.2680 -0.0229 -0.4659
 1030UDC     C711326   6.317  12.873   8.112  0.7692 -0.5479  1.1662
 1030UDC     C811327   6.290  12.750   8.016 -1.2892 -0.2327  0.3326
 1030UDC     C911328   6.291  12.792   7.868  0.4714  0.0279 -0.6366
 1030UDC    C1011329   6.175  12.752   7.772 -0.3762 -0.4753 -0.4684
 1030UDC    C1111330   6.174  12.833   7.638  0.6680 -0.3880  0.9463
 1031UDC     C111331  15.194   0.723   8.468 -0.7509  0.7555 -0.6728
 1031UDC     C211332  15.195   0.606   8.576 -1.1486 -1.1787  0.6155
 1031UDC     C311333  15.327   0.595   8.658 -0.5697  0.0397  0.0346
 1031UDC     C411334  15.353   0.708   8.760  0.9337 -0.4478  0.4624
 1031UDC     C511335  15.239   0.702   8.867  0.3554 -0.8489 -0.0117
 1031UDC     C611336  15.296   0.694   9.006 -0.6672  0.7514 -0.7871
 1031UDC     C711337  15.179   0.705   9.104  0.9055  0.3250  0.0858
 1031UDC     C811338  15.247   0.712   9.242 -0.0584 -0.3707 -0.2867
 1031UDC     C911339  15.152   0.749   9.361 -0.1330 -0.3768 -0.8059
 1031UDC    C1011340  15.236   0.735   9.494 -0.4806  0.0827 -0.5664
 1031UDC    C1111341  15.260   0.587   9.548  0.4230 -0.9634  0.4656
 1032UDC     C111342  13.929   5.541   6.450  0.3362 -0.3519  0.2628
 1032UDC     C211343  13.937   5.500   6.298 -1.5723  0.6204 -0.9696
 1032UDC     C311344  13.912   5.349   6.266 -0.3340 -0.6810 -0.8482
 1032UDC     C411345  13.833   5.317   6.140  0.1448 -1.8873 -0.2036
 1032UDC     C511346  13.915   5.327   6.011  0.5597  0.2835  0.3450
 1032UDC     C611347  13.820   5.357   5.894 -0.2830  0.4293 -0.5505
 1032UDC     C711348  13.860   5.320   5.751  0.1272 -0.5532  0.1557
 1032UDC     C811349  13.851   5.442   5.653  0.7921  0.6463 -0.9609
 1032UDC     C911350  13.904   5.576   5.709  0.1747  0.7406  0.2552
 1032UDC    C1011351  13.841   5.694   5.631  0.1376 -0.1176 -0.6852
 1032UDC    C1111352  13.880   5.824   5.700  0.0844 -1.0395  0.5177
 1033UDC     C111353  15.964   2.907  12.793  0.9555  0.9490 -0.1382
 1033UDC     C211354  16.074   2.898  12.894  0.0700 -0.2604  0.0016
 1033UDC     C311355  16.201   2.826  12.831 -0.8482  0.0944 -0.0436
 1033UDC     C411356  16.179   2.674  12.817 -0.3720 -0.2528  1.1695
 1033UDC     C511357  16.124   2.607  12.687 -0.1309 -0.3659 -1.0476
 1033UDC     C611358  16.244   2.569  12.606  1.5889 -1.0138 -0.1389
 1033UDC     C711359  16.227   2.457  12.499 -0.0519  0.2716 -0.0811
 1033UDC     C811360  16.366   2.438  12.433  0.7989 -0.9743 -0.7421
 1033UDC     C911361  16.395   2.320  12.348  0.3478  0.1013  1.0521
 1033UDC    C1011362  16.367   2.189  12.415  0.8829 -0.2743  0.1398
 1033UDC    C1111363  16.387   2.062  12.332  0.3512 -0.0229 -0.2830
 1034UDC     C111364   7.494  18.218  10.806 -0.2821 -0.5435  0.5759
 1034UDC     C211365   7.606  18.242  10.904 -0.9443  0.8979  0.1727
 1034UDC     C311366   7.547  18.246  11.044 -0.5143 -0.0895 -0.7727
 1034UDC     C411367   7.639  18.310  11.145  0.8439  1.4193  0.6119
 1034UDC     C511368   7.575  18.351  11.281  0.0501  0.2842 -0.1965
 1034UDC     C611369   7.667  18.433  11.376  0.2252  0.6310 -0.0461
 1034UDC     C711370   7.777  18.342  11.415 -1.0885  0.5754 -1.0492
 1034UDC     C811371   7.889  18.389  11.506 -0.0605  1.1147  0.2159
 1034UDC     C911372   8.022  18.309  11.474  0.2963  0.6214  0.0011
 1034UDC    C1011373   8.079  18.340  11.341  0.0490 -0.3557  0.5003
 1034UDC    C1111374   8.140  18.208  11.275 -0.2508 -1.6505 -0.3304
 1035UDC     C111375   5.046   9.813   4.033 -0.8215 -0.0851 -1.2625
 1035UDC     C211376   5.159   9.806   4.144  0.1512  0.5085 -0.3081
 1035UDC     C311377   5.100   9.844   4.286 -1.0850 -0.9385  0.0609
 1035UDC     C411378   5.225   9.890   4.362  0.1021 -0.2230  0.1296
 1035UDC     C511379   5.219   9.910   4.516  0.9848  0.4568 -0.3830
 1035UDC     C611380   5.357   9.971   4.563  0.2279 -0.1201 -0.8762
 1035UDC     C711381   5.411   9.936   4.708  0.3501  0.2841  0.9049
 1035UDC     C811382   5.430  10.059   4.801 -0.3679 -0.8946 -0.5767
 1035UDC     C911383   5.497  10.004   4.933  1.4612 -0.2446 -0.0105
 1035UDC    C1011384   5.405   9.931   5.040  0.2742  0.8403 -0.4445
 1035UDC    C1111385   5.511   9.889   5.140 -0.0814 -0.0654  0.1476
 1036UDC     C111386  12.048  14.803   8.712  0.3366 -0.8261  0.6183
 1036UDC     C211387  11.942  14.916   8.678 -0.3934  0.5536 -1.5678
 1036UDC     C311388  11.815  14.909   8.761  1.2685  0.6547 -0.2997
 1036UDC     C411389  11.755  15.046   8.810 -0.0090 -0.8753 -0.5362
 1036UDC     C511390  11.656  15.028   8.923 -0.8771 -0.6785  0.2476
 1036UDC     C611391  11.539  14.943   8.890 -0.2717 -0.1283  0.5384
 1036UDC     C711392  11.434  14.907   8.998 -0.0846  0.8213  0.1579
 1036UDC     C811393  11.314  14.824   8.951 -0.9045 -0.6559  0.4596
 1036UDC     C911394  11.181  14.857   9.020 -0.6890 -0.0591 -0.2802
 1036UDC    C1011395  11.126  14.991   8.972 -0.3054 -0.0201  0.0876
 1036UDC    C1111396  11.047  15.054   9.086  0.7554  0.6247 -0.8285
 1037UDC     C111397   7.411  18.076  11.897 -0.4261  0.3333 -0.3786
 1037UDC     C211398   7.501  17.943  11.883  0.6868 -0.0070 -1.1225
 1037UDC     C311399   7.650  17.970  11.939  1.1754 -0.4241 -0.0512
 1037UDC     C411400   7.692  17.933  12.084  1.5722 -0.8974 -0.4106
 1037UDC     C511401   7.817  18.014  12.120 -0.0082  0.9299  0.3385
 1037UDC     C611402   7.934  17.935  12.186 -0.2780 -0.5525 -0.0312
 1037UDC     C711403   8.061  18.021  12.201 -0.1858 -0.2187 -0.4736
 1037UDC     C811404   8.079  18.116  12.079 -0.5784 -0.6500 -0.2081
 1037UDC     C911405   8.232  18.142  12.064  1.4656  0.8296  0.6517
 1037UDC    C1011406   8.272  18.238  11.955  0.4121  0.7124 -0.3168
 1037UDC    C1111407   8.191  18.368  11.932  0.2159  0.0216 -0.8709
 1038UDC     C111408  17.377   1.659   0.216  0.0547 -0.0193  0.4951
 1038UDC     C211409  17.341   1.598   0.077  0.7252 -0.5956 -1.0360
 1038UDC     C311410  17.311   1.698  -0.038  0.1325 -0.4689 -0.4978
 1038UDC     C411411  17.299   1.636  -0.178  0.4340 -0.4023  0.6259
 1038UDC     C511412  17.279   1.734  -0.289  0.4392  0.0148  0.8914
 1038UDC     C611413  17.256   1.661  -0.424  0.1158 -0.4353 -0.0114
 1038UDC     C711414  17.288   1.742  -0.551  0.3501 -1.6918  0.1935
 1038UDC     C811415  17.269   1.673  -0.693  0.6756 -0.6687  0.4390
 1038UDC     C911416  17.126   1.668  -0.750  0.6334  1.0007 -0.6600
 1038UDC    C1011417  17.124   1.648  -0.903  0.6277 -0.0136  0.7639
 1038UDC    C1111418  17.190   1.757  -0.993  1.4400 -0.0491  0.0995
 1039UDC     C111419   4.060  16.534  10.065  0.4277  0.7561  0.1966
 1039UDC     C211420   3.995  16.480  10.190 -0.0148  0.6683 -0.4102
 1039UDC     C311421   3.899  16.370  10.189 -0.1058  1.1751 -0.0556
 1039UDC     C411422   3.837  16.365  10.328 -0.0663 -0.3388 -0.1468
 1039UDC     C511423   3.934  16.392  10.445 -0.0557  0.2183 -1.2426
 1039UDC     C611424   4.035  16.281  10.494 -0.3824 -0.2231  0.1457
 1039UDC     C711425   4.075  16.295  10.642 -0.4609 -0.0575 -0.0836
 1039UDC     C811426   3.949  16.307  10.729  0.4120 -1.2823 -0.7441
 1039UDC     C911427   3.884  16.177  10.773  1.3431 -1.7761  0.0335
 1039UDC    C1011428   3.754  16.183  10.850  0.7949 -0.4538  0.9480
 1039UDC    C1111429   3.659  16.073  10.813  0.1209 -0.7994 -0.4875
 1040UDC     C111430  12.650  19.210   1.970  0.1272  0.0692 -0.0276
 1040UDC     C211431  12.617  19.236   1.819 -0.7910 -0.3123 -0.5050
 1040UDC     C311432  12.463  19.257   1.822 -0.1468 -0.9945  0.3631
 1040UDC     C411433  12.403  19.346   1.715 -0.4847  0.6613  0.3134
 1040UDC     C511434  12.421  19.494   1.755  0.5267 -0.0777 -0.1335
 1040UDC     C611435  12.555  19.550   1.693  0.1770  0.5153 -0.5044
 1040UDC     C711436  12.552  19.697   1.723  0.2531 -1.3197  0.1905
 1040UDC     C811437  12.694  19.763   1.688  1.2830  1.0636 -0.4168
 1040UDC     C911438  12.714  19.711   1.542  0.0926 -1.0299  0.1864
 1040UDC    C1011439  12.861  19.720   1.517  0.2095  0.4355  0.8881
 1040UDC    C1111440  12.967  19.653   1.597  0.6084 -0.4202  0.4852
 1041UDC     C111441   1.392   4.386  18.686 -0.4564 -1.4399  0.2210
 1041UDC     C211442   1.529   4.338  18.666  0.8317 -0.2879  0.1910
 1041UDC     C311443   1.648   4.425  18.612 -0.2865 -0.6341 -0.7147
 1041UDC     C411444   1.794   4.383  18.650 -0.5095 -0.1500 -0.1125
 1041UDC     C511445   1.889   4.487  18.599 -0.2040 -0.5514  0.6172
 1041UDC     C611446   1.928   4.496  18.444 -1.1774  0.5211  0.3900
 1041UDC     C711447   1.949   4.645  18.400  0.4356 -0.3297  0.7741
 1041UDC     C811448   2.001   4.636  18.252 -0.0036 -0.5884  0.2307
 1041UDC     C911449   1.905   4.561  18.156  0.5510  0.2862  0.5918
 1041UDC    C1011450   1.963   4.560  18.004 -0.5351 -0.5833 -0.4743
 1041UDC    C1111451   1.879   4.490  17.901  0.1709  0.5840  0.4767
 1042UDC     C111452   3.598   3.021   2.331 -0.2171  0.0844  0.3093
 1042UDC     C211453   3.622   2.873   2.333  1.5654 -1.0485  0.1626
 1042UDC     C311454   3.770   2.852   2.323  0.4054 -0.9727 -0.0327
 1042UDC     C411455   3.853   2.910   2.445  0.4129  0.5797 -1.0196
 1042UDC     C511456   3.997   2.903   2.383 -0.0870 -0.1638 -0.2482
 1042UDC     C611457   4.002   2.924   2.229 -0.1490  0.8869 -1.3137
 1042UDC     C711458   4.094   2.828   2.158 -0.5795 -0.6089  0.1980
 1042UDC     C811459   4.093   2.849   2.007 -0.1000 -0.7928 -0.7685
 1042UDC     C911460   3.978   2.901   1.926  1.1544  0.1088  0.2781
 1042UDC    C1011461   4.006   2.936   1.781 -0.5783  0.1153  0.5953
 1042UDC    C1111462   4.045   2.808   1.703  0.2244 -0.7336  0.5306
 1043UDC     C111463   1.222   9.900  16.738  0.2533 -0.0367 -0.1051
 1043UDC     C211464   1.245   9.834  16.872 -1.4341 -0.0027 -0.9806
 1043UDC     C311465   1.266   9.941  16.982  0.8941  0.3141 -0.2674
 1043UDC     C411466   1.129   9.983  17.038 -0.8527  0.2211 -0.6225
 1043UDC     C511467   1.127  10.135  17.085 -0.3240  0.6443  0.7151
 1043UDC     C611468   0.989  10.171  17.130  0.1572 -0.0657 -1.4748
 1043UDC     C711469   0.961  10.319  17.116  0.0672  0.5014 -0.5092
 1043UDC     C811470   0.826  10.379  17.183 -0.9276 -0.0591  0.6463
 1043UDC     C911471   0.827  10.524  17.157  0.2897  0.3603 -0.3637
 1043UDC    C1011472   0.748  10.613  17.255 -0.0637 -0.3193 -0.3677
 1043UDC    C1111473   0.768  10.771  17.225  1.2373  1.8898  0.2750
 1044UDC     C111474   9.726  12.566   2.636  0.2712 -0.0508  0.5326
 1044UDC     C211475   9.818  12.645   2.538  0.1863  0.0525 -0.9301
 1044UDC     C311476   9.876  12.533   2.456  0.8196  0.4095  0.4226
 1044UDC     C411477   9.763  12.486   2.358  0.5203 -0.4974 -0.8998
 1044UDC     C511478   9.749  12.338   2.321 -0.2489 -0.2372  0.2641
 1044UDC     C611479   9.621  12.320   2.239 -0.1372 -0.7884 -0.2960
 1044UDC     C711480   9.495  12.399   2.308 -0.4777  1.1930 -1.2739
 1044UDC     C811481   9.371  12.332   2.257 -1.0843  0.4222 -0.5383
 1044UDC     C911482   9.307  12.408   2.140 -0.1934 -0.2810  0.1587
 1044UDC    C1011483   9.154  12.416   2.156 -0.1706 -0.3208  1.2460
 1044UDC    C1111484   9.060  12.472   2.047  0.7456  0.0799 -0.4533
 1045UDC     C111485   3.262  16.772  19.938 -0.5051 -0.2002 -0.6532
 1045UDC     C211486   3.152  16.871  19.955  0.5339 -0.4029 -1.2467
 1045UDC     C311487   3.192  16.992  20.032 -0.1586 -0.4306 -0.2495
 1045UDC     C411488   3.088  17.105  20.020  0.0019  0.2343  0.0458
 1045UDC     C511489   3.044  17.177  20.146 -0.6106  1.9872 -0.3693
 1045UDC     C611490   2.972  17.088  20.245  1.0018 -0.4178 -0.7082
 1045UDC     C711491   2.945  17.174  20.369 -0.6128  0.7931 -0.7321
 1045UDC     C811492   2.856  17.301  20.373  0.0147 -0.6348 -0.0700
 1045UDC     C911493   2.711  17.265  20.363  0.2997  0.6737  0.1130
 1045UDC    C1011494   2.641  17.198  20.484 -0.3691  1.2603 -0.0135
 1045UDC    C1111495   2.493  17.182  20.472 -0.2304  0.6496 -0.1612
 1046UDC     C111496  18.896   9.515  16.667  0.6465 -0.9392 -0.3174
 1046UDC     C211497  18.761   9.531  16.749 -0.3942 -0.9134 -0.2594
 1046UDC     C311498  18.623   9.530  16.678 -0.8054 -0.0698  0.3948
 1046UDC     C411499  18.603   9.637  16.576  0.1064  0.2387  0.1604
 1046UDC     C511500  18.533   9.572  16.457 -0.6471  0.0522 -0.3358
 1046UDC     C611501  18.492   9.678  16.355  0.0984 -0.6051  0.2790
 1046UDC     C711502  18.383   9.628  16.251  0.4467 -0.8459 -0.1992
 1046UDC     C811503  18.245   9.611  16.317  0.8303  0.0381  0.9453
 1046UDC     C911504  18.133   9.704  16.254  1.2428 -0.2247  0.5470
 1046UDC    C1011505  18.123   9.857  16.258  0.1032 -0.0594  0.2717
 1046UDC    C1111506  18.236   9.930  16.181  0.0632  0.5818 -0.9239
 1047UDC     C111507   1.436   2.076  15.452  0.2800 -0.0152  0.6752
 1047UDC     C211508   1.341   2.022  15.559 -0.8681 -0.1353  0.1109
 1047UDC     C311509   1.347   2.121  15.674  0.6168 -0.5602  0.2427
 1047UDC     C411510   1.325   2.276  15.650 -0.7330 -0.5440 -0.2777
 1047UDC     C511511   1.336   2.382  15.763 -0.5009  0.2170 -0.0504
 1047UDC     C611512   1.470   2.460  15.744  0.0567 -0.7987  0.2188
 1047UDC     C711513   1.565   2.488  15.864 -0.1648 -0.3741  0.3918
 1047UDC     C811514   1.627   2.363  15.922  0.0242  0.9152 -0.5669
 1047UDC     C911515   1.737   2.287  15.843 -0.3187 -0.1866 -1.2531
 1047UDC    C1011516   1.846   2.384  15.803  0.0145  0.3143 -0.0200
 1047UDC    C1111517   1.967   2.297  15.773 -0.8329 -0.0112 -0.0729
 1048UDC     C111518  15.623  15.118  18.269 -0.0666 -0.4157  0.5312
 1048UDC     C211519  15.473  15.129  18.244 -0.7910 -0.2829 -0.6820
 1048UDC     C311520  15.381  15.035  18.324  0.7398 -0.1627  0.0680
 1048UDC     C411521  15.231  15.059  18.343 -0.7388  0.1083 -0.0837
 1048UDC     C511522  15.169  14.930  18.398  0.3523 -0.7750 -0.8228
 1048UDC     C611523  15.036  14.973  18.477 -0.5395  0.3606 -0.7187
 1048UDC     C711524  14.914  14.963  18.375  0.0159 -0.4200 -0.5810
 1048UDC     C811525  14.790  15.017  18.443 -0.1159 -0.4576  0.4125
 1048UDC     C911526  14.739  15.146  18.381 -0.3725 -0.1509 -0.7412
 1048UDC    C1011527  14.644  15.238  18.457 -0.2037 -0.2469  1.2008
 1048UDC    C1111528  14.497  15.198  18.432 -0.4344  0.0498 -0.0497
 1049UDC     C111529   3.700  16.868   4.214  0.1784 -0.4021 -0.0162
 1049UDC     C211530   3.771  16.998   4.269  0.0335  0.1866 -0.7038
 1049UDC     C311531   3.889  17.047   4.184 -0.2607 -0.0877 -0.5592
 1049UDC     C411532   3.956  17.163   4.260  0.8459 -0.0865 -1.0509
 1049UDC     C511533   4.097  17.210   4.230  0.4950 -0.6259 -1.0752
 1049UDC     C611534   4.137  17.317   4.336  0.1258  1.3698 -0.0298
 1049UDC     C711535   4.288  17.333   4.370  0.0948  1.2067  0.7472
 1049UDC     C811536   4.314  17.468   4.435 -0.4057  0.3704  0.1869
 1049UDC     C911537   4.344  17.571   4.328 -0.2540  0.6989 -0.8727
 1049UDC    C1011538   4.349  17.720   4.381 -1.4033  0.2016 -0.1669
 1049UDC    C1111539   4.445  17.806   4.300  1.2868 -0.7025 -0.4463
 1050UDC     C111540   7.350  11.478   2.371 -0.7979 -1.9902 -0.6902
 1050UDC     C211541   7.441  11.517   2.252 -0.5048  0.0715  0.0441
 1050UDC     C311542   7.357  11.484   2.128 -0.5622 -0.0564  0.3863
 1050UDC     C411543   7.443  11.476   2.003  0.8562 -0.3343 -0.5708
 1050UDC     C511544   7.508  11.610   1.977 -0.4517 -0.6213 -0.5770
 1050UDC     C611545   7.604  11.602   1.856 -0.0315  0.5554 -0.3457
 1050UDC     C711546   7.703  11.721   1.868 -0.0828 -0.0447  0.1841
 1050UDC     C811547   7.811  11.743   1.975  0.3098 -0.4734 -0.1464
 1050UDC     C911548   7.927  11.649   1.954 -0.3813  0.2707 -0.6978
 1050UDC    C1011549   7.896  11.509   2.010  0.4474  0.6226 -0.1533
 1050UDC    C1111550   8.000  11.392   2.008 -0.1061 -0.6840  0.5951
 1051UDC     C111551   0.187   5.673   7.147 -0.0890 -0.1900 -0.5935
 1051UDC     C211552   0.055   5.686   7.231 -0.8081 -0.4335 -0.1263
 1051UDC     C311553  -0.073   5.664   7.150 -0.3563  0.1821  0.1134
 1051UDC     C411554  -0.184   5.759   7.185 -0.1132  1.3998  0.4868
 1051UDC     C511555  -0.181   5.897   7.133  0.5367  0.8477  1.6280
 1051UDC     C611556  -0.233   5.944   6.995 -0.3625  0.0937 -0.0870
 1051UDC     C711557  -0.173   6.068   6.944 -0.2097  0.8790  0.2532
 1051UDC     C811558  -0.019   6.071   6.915  0.2722  0.3329 -0.3209
 1051UDC     C911559   0.041   6.208   6.865 -0.3683  0.5458 -1.2412
 1051UDC    C1011560   0.034   6.229   6.719 -0.2172 -0.1143  0.3612
 1051UDC    C1111561   0.043   6.378   6.694  1.2402  0.3030 -0.1244
 1052UDC     C111562  17.920  11.016   5.675  0.4500  0.1627 -0.8506
 1052UDC     C211563  17.848  10.951   5.799 -0.7277  0.3902 -1.3325
 1052UDC     C311564  17.726  11.020   5.856  1.0025 -0.1190  0.8089
 1052UDC     C411565  17.747  11.147   5.937  0.3966 -0.4302 -0.6839
 1052UDC     C511566  17.825  11.273   5.881 -0.4593  0.2501 -0.1492
 1052UDC     C611567  17.842  11.392   5.976  0.2527 -0.6365  0.3568
 1052UDC     C711568  17.979  11.381   6.046 -0.4742  0.5133  0.4995
 1052UDC     C811569  18.096  11.351   5.946  1.1440  0.4390  0.0796
 1052UDC     C911570  18.213  11.271   5.994  0.2916 -0.6106 -0.0370
 1052UDC    C1011571  18.178  11.134   6.058  0.5407  0.3301 -0.2789
 1052UDC    C1111572  18.180  10.999   5.985 -0.8401 -0.0813  0.5132
 1053UDC     C111573   8.016  17.165   5.279 -0.2109 -0.5082 -0.0674
 1053UDC     C211574   8.143  17.136   5.203  0.2372  0.4369  0.2601
 1053UDC     C311575   8.143  17.020   5.097 -0.2886 -0.2882 -0.1660
 1053UDC     C411576   8.290  16.988   5.077  0.3193 -0.8121  0.4290
 1053UDC     C511577   8.373  16.928   5.198 -1.0281  0.4015  0.2676
 1053UDC     C611578   8.516  16.912   5.149  0.1429 -0.0892 -0.3058
 1053UDC     C711579   8.526  16.818   5.029 -0.1708  0.2563 -0.5695
 1053UDC     C811580   8.664  16.756   4.993 -0.3819 -1.2140 -0.1915
 1053UDC     C911581   8.646  16.678   4.866  0.2222 -0.4049 -0.2868
 1053UDC    C1011582   8.780  16.607   4.848  0.6454  0.9275 -0.3752
 1053UDC    C1111583   8.792  16.525   4.720  0.2236 -0.6957 -0.9794
 1054UDC     C111584   9.674  14.255  18.889 -0.7094  0.0206  0.0614
 1054UDC     C211585   9.746  14.325  18.773  0.3026 -0.4011  0.6043
 1054UDC     C311586   9.902  14.310  18.766  0.1903 -0.9228 -0.1891
 1054UDC     C411587   9.933  14.247  18.626  0.3362  1.3126 -0.0276
 1054UDC     C511588  10.072  14.174  18.610 -0.5648  0.1415  0.1096
 1054UDC     C611589  10.099  14.087  18.487 -0.1403  0.8752 -0.6210
 1054UDC     C711590   9.959  14.041  18.432 -0.6305  0.7986  0.5714
 1054UDC     C811591   9.964  13.954  18.303 -0.3220 -0.2370  0.6415
 1054UDC     C911592  10.058  13.839  18.318 -0.0482 -0.8172  0.9784
 1054UDC    C1011593  10.091  13.776  18.180 -0.6158  0.5261 -1.3562
 1054UDC    C1111594  10.230  13.708  18.182  0.1081 -0.2133  0.1286
 1055UDC     C111595   3.214   5.997  18.561  0.2468 -1.0333 -0.0141
 1055UDC     C211596   3.315   5.932  18.661 -0.9990  0.3954  0.4294
 1055UDC     C311597   3.305   5.965  18.812 -0.4435  0.4432 -0.4755
 1055UDC     C411598   3.169   5.957  18.879 -0.0851 -0.5731 -1.8058
 1055UDC     C511599   3.148   6.012  19.019 -0.9689 -0.1042  0.0686
 1055UDC     C611600   3.009   5.987  19.080 -0.3439 -0.6547 -0.5272
 1055UDC     C711601   2.916   6.102  19.034 -0.1336  0.7248  0.8566
 1055UDC     C811602   2.964   6.257  19.027  0.3120  0.5181 -0.7363
 1055UDC     C911603   2.886   6.353  18.926 -1.3226  0.3471  0.1708
 1055UDC    C1011604   2.941   6.497  18.916 -0.0660 -0.9431  0.5633
 1055UDC    C1111605   2.871   6.614  18.828  0.2986 -0.1032 -0.1258
 1056UDC     C111606  11.094  15.243   8.638  0.9425 -0.6155  1.0247
 1056UDC     C211607  11.063  15.363   8.741 -1.3537  0.4821 -0.2118
 1056UDC     C311608  10.933  15.363   8.817  0.8012 -1.2776  0.0620
 1056UDC     C411609  10.844  15.484   8.792 -0.2246  0.0189  0.0576
 1056UDC     C511610  10.708  15.493   8.857 -0.6133  0.5513  0.9769
 1056UDC     C611611  10.611  15.583   8.779 -0.3077  0.4757  0.9025
 1056UDC     C711612  10.563  15.696   8.868  0.6405  0.1200 -0.2134
 1056UDC     C811613  10.456  15.665   8.978  0.0335 -0.7974 -0.1659
 1056UDC     C911614  10.497  15.607   9.123  0.0531 -0.3500  0.7993
 1056UDC    C1011615  10.637  15.620   9.191 -0.4406  0.3824  0.2585
 1056UDC    C1111616  10.640  15.533   9.312  0.0398 -1.3964  0.1284
 1057UDC     C111617   0.745   9.222  15.955 -0.4230  0.8517 -0.4076
 1057UDC     C211618   0.844   9.206  16.073 -0.0900 -0.3446  0.7979
 1057UDC     C311619   0.804   9.128  16.196 -1.3692  0.7561 -0.2693
 1057UDC     C411620   0.843   9.201  16.327 -0.9766 -0.1506  0.2228
 1057UDC     C511621   0.891   9.112  16.439  0.8113 -0.5683 -0.2062
 1057UDC     C611622   0.944   9.176  16.570 -1.1983 -0.2319  0.0248
 1057UDC     C711623   0.934   9.108  16.710  1.4396  1.4922 -0.1113
 1057UDC     C811624   0.920   9.168  16.850 -1.2329  0.0463  1.2010
 1057UDC     C911625   0.858   9.068  16.946 -1.2471  0.4614 -0.0383
 1057UDC    C1011626   0.865   9.110  17.090 -0.6073 -1.0547  0.6574
 1057UDC    C1111627   0.782   9.042  17.195 -0.6637  0.0131 -0.6423
 1058UDC     C111628  12.247   6.587  18.350  0.4389 -0.3212  1.5291
 1058UDC     C211629  12.141   6.478  18.373 -0.8041 -1.8832 -0.1264
 1058UDC     C311630  12.006   6.541  18.412 -1.6853 -0.2595 -0.2744
 1058UDC     C411631  11.956   6.665  18.336 -1.0720 -1.4355  0.5328
 1058UDC     C511632  11.944   6.644  18.186 -0.0802  0.4748  0.5109
 1058UDC     C611633  11.919   6.781  18.116  0.6909  0.2724 -0.2674
 1058UDC     C711634  11.896   6.782  17.964 -0.2269  0.5794 -0.9326
 1058UDC     C811635  11.923   6.917  17.894  0.3756  0.0760 -0.3077
 1058UDC     C911636  11.942   6.897  17.748  0.6070  0.2978  0.8868
 1058UDC    C1011637  11.815   6.936  17.676 -0.0906 -0.5215 -0.1382
 1058UDC    C1111638  11.817   6.918  17.521 -0.0798 -0.2276  0.6041
 1059UDC     C111639  18.127   5.733   8.619 -1.1793  0.4670  0.2807
 1059UDC     C211640  18.221   5.720   8.494 -0.1802  0.2206 -0.0688
 1059UDC     C311641  18.367   5.771   8.501  0.4617  0.0378 -0.5827
 1059UDC     C411642  18.440   5.736   8.371 -0.0265 -0.0786 -0.2924
 1059UDC     C511643  18.485   5.868   8.316  0.0825  0.3399 -0.2935
 1059UDC     C611644  18.616   5.868   8.244 -0.4057 -0.3994  0.5212
 1059UDC     C711645  18.624   5.726   8.189 -0.7119 -0.0357  0.2578
 1059UDC     C811646  18.748   5.736   8.088  1.2458  0.8182  0.8257
 1059UDC     C911647  18.778   5.614   7.996 -0.1331 -0.0313  0.3750
 1059UDC    C1011648  18.910   5.630   7.926  0.7469 -0.2800 -0.1785
 1059UDC    C1111649  19.040   5.584   7.995  0.8613 -1.3367 -0.1080
 1060UDC     C111650   6.564  15.777  17.583  0.5466  0.4923 -0.3788
 1060UDC     C211651   6.574  15.853  17.459  0.5403 -0.1216  0.6848
 1060UDC     C311652   6.486  15.789  17.353  0.4337 -0.0598  0.7356
 1060UDC     C411653   6.333  15.775  17.363  0.5784 -0.4612 -0.0842
 1060UDC     C511654   6.273  15.875  17.266 -0.8555  0.5718 -1.0697
 1060UDC     C611655   6.281  15.843  17.120  0.0343 -0.1065  0.1258
 1060UDC     C711656   6.228  15.706  17.069  0.6853 -0.6393 -1.5308
 1060UDC     C811657   6.092  15.653  17.117 -0.1169 -1.4496 -0.4526
 1060UDC     C911658   6.031  15.532  17.045  0.4365 -0.7685 -0.0165
 1060UDC    C1011659   5.946  15.443  17.128  0.3133 -0.4899  0.1875
 1060UDC    C1111660   5.887  15.336  17.039  0.2928  0.2254 -0.3032
 1061UDC     C111661   3.294  19.631  18.198 -1.3900  0.7219  0.3337
 1061UDC     C211662   3.429  19.669  18.270  0.6146 -0.1627  0.3717
 1061UDC     C311663   3.457  19.815  18.280  0.6357  0.3511  0.4090
 1061UDC     C411664   3.336  19.915  18.285  0.6416  0.6975  0.5808
 1061UDC     C511665   3.361  20.060  18.239 -1.2434 -0.7579  0.6331
 1061UDC     C611666   3.466  20.068  18.125 -0.1963  0.3419  0.4139
 1061UDC     C711667   3.475  20.197  18.050 -0.2827  0.5173  0.4281
 1061UDC     C811668   3.378  20.180  17.933  0.3741  0.9179 -0.0663
 1061UDC     C911669   3.294  20.279  17.859  0.8147 -0.4942  0.1847
 1061UDC    C1011670   3.159  20.317  17.925  0.1400  0.0620  0.5037
 1061UDC    C1111671   3.152  20.403  18.052 -0.7921  0.0739 -0.3333
 1062UDC     C111672  16.137  13.407  16.107 -0.2262 -0.4873  0.8413
 1062UDC     C211673  16.279  13.424  16.162  1.5803  0.1352  0.7293
 1062UDC     C311674  16.274  13.507  16.286 -0.2313 -1.1740 -0.1442
 1062UDC     C411675  16.235  13.635  16.227  0.0700 -0.0319  0.2382
 1062UDC     C511676  16.224  13.767  16.303 -1.0966  0.1422  0.2865
 1062UDC     C611677  16.139  13.749  16.424  0.1635 -0.9402  0.5319
 1062UDC     C711678  16.064  13.881  16.478  0.8704  0.2130 -0.7324
 1062UDC     C811679  16.011  13.857  16.616  0.8322 -0.2986  0.5149
 1062UDC     C911680  16.133  13.820  16.695  0.4926 -0.6594  0.0163
 1062UDC    C1011681  16.120  13.744  16.827 -0.8578  0.0252  0.0362
 1062UDC    C1111682  16.063  13.597  16.826 -0.7210 -0.4256 -0.0909
 1063UDC     C111683  13.728  10.246   2.558 -0.5264  1.0632 -0.5171
 1063UDC     C211684  13.629  10.310   2.660 -0.2565  1.6198  0.0829
 1063UDC     C311685  13.547  10.186   2.697  0.6799  0.7013  0.1475
 1063UDC     C411686  13.533  10.161   2.854 -0.5365 -0.4868  0.3828
 1063UDC     C511687  13.500  10.017   2.900 -0.5145 -0.4056  0.3156
 1063UDC     C611688  13.541   9.987   3.040 -0.2942  0.6825 -0.1158
 1063UDC     C711689  13.475   9.863   3.113  0.0702  0.4442 -0.0354
 1063UDC     C811690  13.534   9.860   3.255 -0.2657  0.7124  1.2997
 1063UDC     C911691  13.423   9.841   3.361  0.1854 -0.1811  0.0640
 1063UDC    C1011692  13.461   9.809   3.505 -0.2999  0.0540 -0.1914
 1063UDC    C1111693  13.381   9.688   3.558  0.2115 -0.3905 -0.4663
 1064UDC     C111694  13.758   6.037   7.101  0.5683  0.1522  0.2054
 1064UDC     C211695  13.841   5.946   7.016 -1.3360 -0.4813  0.1857
 1064UDC     C311696  13.948   5.876   7.109 -0.0825 -0.5461  1.0848
 1064UDC     C411697  14.047   5.786   7.028  1.0427  1.9702 -0.5843
 1064UDC     C511698  14.190   5.818   7.071 -0.6314  0.9071  1.1648
 1064UDC     C611699  14.223   5.830   7.219  0.6005 -0.4146  1.0295
 1064UDC     C711700  14.364   5.777   7.243 -0.3395  0.1095 -0.3238
 1064UDC     C811701  14.386   5.623   7.217 -0.6436  0.9369  0.1684
 1064UDC     C911702  14.532   5.588   7.239 -0.6473  0.4671  0.3942
 1064UDC    C1011703  14.575   5.446   7.199  2.2027 -0.1898  0.4696
 1064UDC    C1111704  14.709   5.443   7.122  0.6941 -0.5272  0.1310
 1065UDC     C111705  15.054  12.028   8.038 -0.4496 -0.3392  0.3823
 1065UDC     C211706  15.193  11.980   8.041  0.4258 -0.4577 -0.2159
 1065UDC     C311707  15.253  12.079   7.945 -1.2665  0.3934  0.2721
 1065UDC     C411708  15.179  12.067   7.810  0.7376  0.2066  0.4457
 1065UDC     C511709  15.211  12.152   7.689  0.3255 -0.3910  0.1054
 1065UDC     C611710  15.154  12.300   7.700  0.6975  0.2914  0.5961
 1065UDC     C711711  15.002  12.289   7.697  0.8983 -0.6567  0.0308
 1065UDC     C811712  14.925  12.424   7.691 -0.6316  0.8478 -0.5870
 1065UDC     C911713  14.959  12.527   7.584  1.2949  0.1879 -0.7345
 1065UDC    C1011714  14.894  12.523   7.446  0.4175  0.3157  0.0312
 1065UDC    C1111715  15.004  12.470   7.344  0.6646 -0.2422 -0.1980
 1066UDC     C111716   7.262   4.813  10.909  0.6059 -0.6807  1.0241
 1066UDC     C211717   7.389   4.893  10.918  0.3340 -0.6971  0.1895
 1066UDC     C311718   7.486   4.926  10.799  0.5199  0.4932  0.4233
 1066UDC     C411719   7.596   5.033  10.832 -0.4737 -0.3756  0.1331
 1066UDC     C511720   7.518   5.165  10.828  0.1905  0.6961  1.2260
 1066UDC     C611721   7.604   5.269  10.882  0.6160  0.1001 -0.3879
 1066UDC     C711722   7.565   5.296  11.026 -0.5420 -0.3078  0.3205
 1066UDC     C811723   7.618   5.428  11.079 -0.2896  0.0025 -0.1048
 1066UDC     C911724   7.634   5.426  11.234  0.8417 -0.5165 -0.1267
 1066UDC    C1011725   7.655   5.565  11.281 -0.9634  0.4986 -0.6027
 1066UDC    C1111726   7.672   5.582  11.430 -0.2447 -0.0658 -0.5045
 1067UDC     C111727   4.648   4.064  16.426  0.6778  0.0200 -0.9006
 1067UDC     C211728   4.718   3.983  16.324  0.4114 -0.3469 -0.1308
 1067UDC     C311729   4.648   3.849  16.284 -0.1618 -0.5061 -0.0386
 1067UDC     C411730   4.724   3.741  16.205  0.4786  0.1059  0.4860
 1067UDC     C511731   4.667   3.603  16.235  0.2874  0.4867  0.3476
 1067UDC     C611732   4.743   3.502  16.158  0.4472 -0.1185  0.3112
 1067UDC     C711733   4.898   3.515  16.146 -1.0888 -0.1074  0.5240
 1067UDC     C811734   4.967   3.409  16.062 -1.0132  0.0120 -1.0486
 1067UDC     C911735   4.878   3.356  15.948 -0.0451  0.5171 -0.4442
 1067UDC    C1011736   4.943   3.221  15.914  0.4001 -1.1849 -0.1551
 1067UDC    C1111737   4.855   3.122  15.833  0.5015  0.3476  0.5361
 1068UDC     C111738  16.595  18.447   5.708  1.3349  0.7843  0.4416
 1068UDC     C211739  16.589  18.352   5.595  0.7622  0.9046 -0.0564
 1068UDC     C311740  16.676  18.226   5.623 -0.6110 -0.0653  0.5872
 1068UDC     C411741  16.708  18.139   5.498  0.0148 -0.8833 -0.3128
 1068UDC     C511742  16.751  18.216   5.368 -0.9484 -0.7110 -0.9825
 1068UDC     C611743  16.839  18.152   5.262 -0.4574 -0.0681  0.3499
 1068UDC     C711744  16.887  18.241   5.143  0.6027  1.1426  0.0135
 1068UDC     C811745  16.950  18.154   5.031  0.6208  0.8930  0.2885
 1068UDC     C911746  16.868  18.029   4.979  0.5891  0.6602  0.0565
 1068UDC    C1011747  16.906  17.977   4.846 -0.2556 -0.3221  0.1326
 1068UDC    C1111748  17.053  17.924   4.847 -0.9829 -0.2887 -1.0146
 1069UDC     C111749   2.721  13.964  16.925 -0.2341  0.3927 -0.4680
 1069UDC     C211750   2.732  14.016  16.782  0.4780 -0.1256  0.4588
 1069UDC     C311751   2.724  14.172  16.785  0.5396 -0.2674 -0.2195
 1069UDC     C411752   2.667  14.220  16.654  0.2188  0.2769  0.4555
 1069UDC     C511753   2.743  14.163  16.532 -0.0372  1.0582  0.2529
 1069UDC     C611754   2.654  14.196  16.410 -0.1931  0.5335 -0.5923
 1069UDC     C711755   2.740  14.175  16.282  0.1355 -0.8651  0.6746
 1069UDC     C811756   2.659  14.200  16.153  0.1631  0.5900 -0.4270
 1069UDC     C911757   2.651  14.354  16.127  0.0188 -0.0393 -0.5618
 1069UDC    C1011758   2.539  14.408  16.035  0.5514  0.6108  1.2542
 1069UDC    C1111759   2.567  14.554  15.992 -0.1251 -0.5440  1.4454
 1070UDC     C111760  14.781   7.505   2.923  0.6238 -0.6247 -0.7925
 1070UDC     C211761  14.640   7.521   2.990 -0.8832 -0.7602  0.3805
 1070UDC     C311762  14.561   7.632   2.921 -1.1973  0.8862  0.8071
 1070UDC     C411763  14.596   7.775   2.963  0.3039 -0.2142  0.4014
 1070UDC     C511764  14.593   7.877   2.847 -0.4034 -0.6870 -0.2277
 1070UDC     C611765  14.564   8.025   2.883 -0.7695 -0.2393  0.0725
 1070UDC     C711766  14.673   8.099   2.964  0.3950  0.6923 -0.0872
 1070UDC     C811767  14.801   8.151   2.893 -0.0297  0.1250 -0.0600
 1070UDC     C911768  14.883   8.253   2.986  0.7916  0.7696 -0.6867
 1070UDC    C1011769  14.981   8.339   2.904  0.2544 -0.3696  0.5939
 1070UDC    C1111770  15.099   8.403   2.982  0.7897  1.2723 -0.2143
 1071UDC     C111771  16.565  16.001   4.637  0.5891  0.0234  0.2768
 1071UDC     C211772  16.543  15.877   4.552 -1.2532 -0.1690  0.0081
 1071UDC     C311773  16.398  15.888   4.504 -0.7189  0.0816  0.2074
 1071UDC     C411774  16.376  15.915   4.353  0.2677 -0.3436  0.6447
 1071UDC     C511775  16.226  15.887   4.328  0.6126 -0.6773 -0.3403
 1071UDC     C611776  16.171  15.896   4.187 -1.3010  0.5951  0.3619
 1071UDC     C711777  16.048  15.804   4.168  0.5642 -0.6156  0.9470
 1071UDC     C811778  15.916  15.831   4.246 -0.4002 -0.6751  0.4902
 1071UDC     C911779  15.811  15.723   4.273 -0.7039  0.3514  0.3679
 1071UDC    C1011780  15.658  15.759   4.292 -0.4695  0.8268  0.4669
 1071UDC    C1111781  15.578  15.631   4.319  0.0830  0.4302  0.8399
 1072UDC     C111782  11.188   5.471   5.002 -0.0797  1.2655 -0.8269
 1072UDC     C211783  11.236   5.461   5.155 -0.0291 -1.1536  0.9855
 1072UDC     C311784  11.389   5.429   5.172 -0.2436  0.3915  0.1315
 1072UDC     C411785  11.393   5.368   5.310  0.8061 -0.8662  1.1789
 1072UDC     C511786  11.546   5.361   5.329  0.3584  0.4213  0.1664
 1072UDC     C611787  11.588   5.395   5.475 -0.6427 -0.1224 -0.5668
 1072UDC     C711788  11.737   5.345   5.514  0.2323  0.2773  0.5215
 1072UDC     C811789  11.750   5.330   5.662 -0.9247 -0.0966  0.0758
 1072UDC     C911790  11.743   5.477   5.724 -0.2424 -0.0430 -0.5792
 1072UDC    C1011791  11.870   5.544   5.778 -1.1459 -0.1005 -0.3657
 1072UDC    C1111792  11.871   5.695   5.764 -0.1520 -0.8263 -0.0735
 1073UDC     C111793  17.066   7.010   4.494  0.8682 -0.5645 -0.0581
 1073UDC     C211794  17.194   7.056   4.561 -1.0563  0.0194 -0.4451
 1073UDC     C311795  17.231   7.203   4.544  1.1378 -0.2379  0.2882
 1073UDC     C411796  17.180   7.303   4.652 -0.2805 -0.1754 -0.0353
 1073UDC     C511797  17.240   7.444   4.616 -0.2481 -0.2688 -0.6230
 1073UDC     C611798  17.351   7.499   4.713 -0.1371 -0.4054  0.3410
 1073UDC     C711799  17.299   7.641   4.741 -0.1648 -0.7120  1.3848
 1073UDC     C811800  17.393   7.699   4.851  0.1524 -0.2469  1.2820
 1073UDC     C911801  17.380   7.847   4.883 -0.0084 -0.1131  0.1314
 1073UDC    C1011802  17.498   7.921   4.948 -0.4904  0.7390 -0.0377
 1073UDC    C1111803  17.573   7.832   5.052 -0.1007  0.4740 -0.1860
 1074UDC     C111804   8.579   8.660   4.592  0.7194  0.7420 -0.1211
 1074UDC     C211805   8.605   8.619   4.450 -0.1700  0.5897  0.9107
 1074UDC     C311806   8.662   8.727   4.359 -0.5059 -0.3495  0.2622
 1074UDC     C411807   8.795   8.784   4.405 -0.1741  0.2157  0.2107
 1074UDC     C511808   8.823   8.899   4.311 -0.5613  0.1370 -0.6773
 1074UDC     C611809   8.714   9.005   4.320  0.3026 -0.3351  0.7462
 1074UDC     C711810   8.734   9.118   4.214  0.2096 -0.0157 -0.6878
 1074UDC     C811811   8.843   9.209   4.278  0.8238  0.1984 -0.2877
 1074UDC     C911812   8.922   9.304   4.195 -0.2521 -0.9220  0.3051
 1074UDC    C1011813   9.044   9.234   4.134 -0.2466  0.5722  0.6865
 1074UDC    C1111814   9.084   9.320   4.011 -1.1601  0.4107 -0.4373
 1075UDC     C111815  16.870   5.752   4.481 -0.2752 -0.1095  0.6053
 1075UDC     C211816  16.951   5.688   4.602  1.2391  0.1739  0.2810
 1075UDC     C311817  16.971   5.530   4.596  0.4127 -0.4774 -0.6333
 1075UDC     C411818  17.091   5.482   4.680 -0.5308 -0.2132  0.6930
 1075UDC     C511819  17.156   5.365   4.599 -1.1068 -0.8041  0.6287
 1075UDC     C611820  17.231   5.272   4.699 -0.8282  0.0258 -0.9565
 1075UDC     C711821  17.373   5.293   4.741 -0.1201 -0.7264 -0.3627
 1075UDC     C811822  17.432   5.221   4.866  0.9156  0.3318  0.0286
 1075UDC     C911823  17.558   5.295   4.894 -0.2226  0.1384 -0.0600
 1075UDC    C1011824  17.594   5.260   5.045  0.2611  0.3778  0.1273
 1075UDC    C1111825  17.744   5.223   5.076  1.2889 -0.4044 -0.0376
 1076UDC     C111826   0.675   4.328   6.595 -0.6692  0.7289 -0.1528
 1076UDC     C211827   0.640   4.390   6.458 -1.3174  0.0723 -0.3521
 1076UDC     C311828   0.761   4.477   6.403  0.3988  0.6924  0.6855
 1076UDC     C411829   0.735   4.560   6.271 -0.0484  0.5977  0.0833
 1076UDC     C511830   0.710   4.710   6.286  0.1472 -0.6560  0.5480
 1076UDC     C611831   0.822   4.817   6.320 -0.2715  0.8704 -0.2482
 1076UDC     C711832   0.755   4.954   6.325  0.1438  0.1387 -0.6438
 1076UDC     C811833   0.736   5.029   6.465 -0.8552 -0.0488 -0.0570
 1076UDC     C911834   0.699   5.178   6.444 -0.5902 -0.1888 -0.4747
 1076UDC    C1011835   0.771   5.259   6.553  0.5060  0.1308  0.4237
 1076UDC    C1111836   0.717   5.402   6.584 -0.5197 -0.8256 -0.1599
 1077UDC     C111837   0.711   9.993  18.188  0.6777 -0.0485  0.3094
 1077UDC     C211838   0.603  10.102  18.172  0.9099  0.6655 -0.2563
 1077UDC     C311839   0.503  10.075  18.055  0.0294  0.7610 -0.5833
 1077UDC     C411840   0.572  10.108  17.918  0.2456  0.3560  0.3596
 1077UDC     C511841   0.500  10.054  17.799  0.6371 -0.0701 -0.0332
 1077UDC     C611842   0.366  10.117  17.781  0.2766 -0.0032 -0.5478
 1077UDC     C711843   0.287  10.113  17.649 -0.1889 -1.6484 -0.1602
 1077UDC     C811844   0.135  10.157  17.650 -0.6411  0.9264  0.1250
 1077UDC     C911845   0.102  10.313  17.670 -0.7724  0.2584  0.6182
 1077UDC    C1011846  -0.045  10.339  17.649 -0.2884 -0.4103  0.8505
 1077UDC    C1111847  -0.136  10.258  17.728  0.2494  0.2007  0.4100
 1078UDC     C111848   3.482   9.159  15.364  0.7206  0.0874 -0.0608
 1078UDC     C211849   3.372   9.185  15.478  0.4415 -0.5396  0.2037
 1078UDC     C311850   3.284   9.312  15.466 -0.6320  0.0196  0.7878
 1078UDC     C411851   3.161   9.304  15.555  0.9880  0.4486 -0.1870
 1078UDC     C511852   3.085   9.432  15.580 -0.5914 -0.7192  0.7951
 1078UDC     C611853   3.154   9.497  15.701 -0.3324 -0.3971 -0.7211
 1078UDC     C711854   3.261   9.594  15.668 -0.5499  0.2564  0.9827
 1078UDC     C811855   3.302   9.719  15.757  0.8935 -0.0278 -0.9152
 1078UDC     C911856   3.403   9.819  15.697 -0.0271 -0.0009 -0.4097
 1078UDC    C1011857   3.549   9.777  15.683 -1.1590  0.1462  0.5270
 1078UDC    C1111858   3.605   9.904  15.626  0.0620 -0.9056 -0.0319
 1079UDC     C111859   9.458  10.485   7.081 -0.4755  1.2490  0.0770
 1079UDC     C211860   9.424  10.455   6.929 -0.5479 -0.0960  0.1082
 1079UDC     C311861   9.496  10.553   6.838 -0.5065 -1.1932  0.4190
 1079UDC     C411862   9.496  10.700   6.880 -0.1384 -0.3781 -0.8320
 1079UDC     C511863   9.577  10.805   6.787  0.0008 -0.1465  1.4583
 1079UDC     C611864   9.712  10.864   6.836 -0.5510 -0.2122  0.5750
 1079UDC     C711865   9.791  10.947   6.732 -0.4385  0.6711  0.8228
 1079UDC     C811866   9.900  11.039   6.789  0.3075 -0.5135  0.1330
 1079UDC     C911867   9.997  11.098   6.690  0.7970  0.3560 -1.0156
 1079UDC    C1011868   9.956  11.195   6.581 -0.0777  0.0251 -0.1050
 1079UDC    C1111869  10.055  11.221   6.465  0.8135  0.7664  0.7618
 1080UDC     C111870  15.320   8.944  18.048  0.1292 -0.6671 -0.5532
 1080UDC     C211871  15.285   8.955  17.893 -0.4600  0.1718 -0.7222
 1080UDC     C311872  15.281   8.817  17.829  1.2016  0.6565  0.1101
 1080UDC     C411873  15.261   8.825  17.673  1.1639  0.2736  0.9200
 1080UDC     C511874  15.320   8.955  17.631 -1.8294  0.8890 -0.0832
 1080UDC     C611875  15.362   8.957  17.487 -0.3830 -0.5249  0.0571
 1080UDC     C711876  15.283   8.882  17.382  0.9422  0.9388  0.1417
 1080UDC     C811877  15.362   8.894  17.252  0.4888  1.4192  0.1684
 1080UDC     C911878  15.309   8.838  17.115 -0.0308 -0.5077 -1.3489
 1080UDC    C1011879  15.207   8.934  17.045  0.0408  0.1307  0.4570
 1080UDC    C1111880  15.123   8.853  16.945 -0.4870 -0.5145  0.5802
 1081UDC     C111881  16.921  12.221  19.300 -0.0009  0.3320 -0.7859
 1081UDC     C211882  16.787  12.145  19.310  0.9137  1.7432 -0.5531
 1081UDC     C311883  16.809  11.994  19.346 -0.8677 -1.0285  1.2617
 1081UDC     C411884  16.776  11.997  19.496  0.1258 -0.0242  0.9225
 1081UDC     C511885  16.702  11.863  19.522 -0.6156  0.9590 -0.5910
 1081UDC     C611886  16.591  11.888  19.620  0.2627  0.7215 -0.3094
 1081UDC     C711887  16.653  11.902  19.759  0.4626  0.0029 -1.0430
 1081UDC     C811888  16.727  11.778  19.814  0.3552 -0.4192 -0.6857
 1081UDC     C911889  16.845  11.804  19.908  0.2143  0.3079 -0.5379
 1081UDC    C1011890  16.925  11.683  19.948 -0.1423  1.6793 -0.7657
 1081UDC    C1111891  16.973  11.588  19.839 -0.2950 -0.9544 -0.1271
 1082UDC     C111892   3.171  12.645  18.007 -0.8935  0.2236 -0.8377
 1082UDC     C211893   3.307  12.621  18.080  0.0742  0.2517 -0.4618
 1082UDC     C311894   3.285  12.541  18.208  0.0092  0.2024  0.8278
 1082UDC     C411895   3.398  12.539  18.311 -0.1530 -0.3868  0.4631
 1082UDC     C511896   3.386  12.470  18.447 -0.9464 -0.0667 -0.3106
 1082UDC     C611897   3.522  12.472  18.527 -0.6523 -0.0552 -0.9862
 1082UDC     C711898   3.613  12.350  18.521 -1.1152  0.5121  0.5479
 1082UDC     C811899   3.763  12.391  18.547 -0.0836 -0.4238 -0.6212
 1082UDC     C911900   3.871  12.278  18.522 -0.2430  0.0473 -0.7362
 1082UDC    C1011901   4.014  12.333  18.562 -0.4350  1.2961 -0.0400
 1082UDC    C1111902   4.054  12.457  18.481  0.1954  0.1415 -0.4687
 1083UDC     C111903   5.877  11.070   1.354  0.8659  0.1993  0.1743
 1083UDC     C211904   5.916  11.078   1.505 -0.1636 -0.6732  0.4341
 1083UDC     C311905   5.947  11.221   1.554  0.8501 -0.9082  0.3788
 1083UDC     C411906   5.948  11.231   1.698  0.3721 -0.8903 -0.9325
 1083UDC     C511907   6.028  11.108   1.741 -0.1253  1.7329  0.0922
 1083UDC     C611908   6.144  11.123   1.836 -1.0497  0.2859 -0.7381
 1083UDC     C711909   6.261  11.215   1.798 -0.3652 -0.1453  0.1340
 1083UDC     C811910   6.366  11.242   1.908  0.0830  0.0275 -0.5239
 1083UDC     C911911   6.512  11.285   1.867  0.5651  0.0518 -0.3792
 1083UDC    C1011912   6.592  11.337   1.986 -0.2960  0.2049 -0.8264
 1083UDC    C1111913   6.738  11.355   1.938 -0.1858 -0.3321  0.3810
 1084UDC     C111914  17.668   0.708   6.003  0.2238  0.5677 -0.5438
 1084UDC     C211915  17.731   0.715   6.139 -0.2851  0.0503  0.0046
 1084UDC     C311916  17.854   0.795   6.133  1.0442  0.2457  0.1188
 1084UDC     C411917  17.945   0.752   6.248  0.9903 -0.2416  0.3454
 1084UDC     C511918  18.089   0.800   6.264 -0.3003  0.1642  0.3502
 1084UDC     C611919  18.185   0.713   6.173  0.2200  0.0346 -0.1859
 1084UDC     C711920  18.326   0.751   6.147 -0.6625 -0.6348  0.3446
 1084UDC     C811921  18.414   0.649   6.078  1.1745  0.2678 -0.2870
 1084UDC     C911922  18.412   0.519   6.160  0.5623 -0.2886  1.3508
 1084UDC    C1011923  18.492   0.405   6.091 -0.0168 -0.5375  0.5743
 1084UDC    C1111924  18.500   0.271   6.148 -0.8090  1.1819  0.0349
 1085UDC     C111925   5.766   5.228   1.771 -0.0097  0.2811  0.0661
 1085UDC     C211926   5.902   5.194   1.841 -0.6639  0.0340  0.6626
 1085UDC     C311927   6.052   5.209   1.794  0.5608  0.0543 -0.4091
 1085UDC     C411928   6.092   5.319   1.688  0.4529 -0.2129 -1.4581
 1085UDC     C511929   6.243   5.318   1.668 -0.4839 -0.1586 -0.4714
 1085UDC     C611930   6.298   5.221   1.561  1.3610  0.8934  0.8389
 1085UDC     C711931   6.437   5.260   1.510  0.7215  0.3957  1.3325
 1085UDC     C811932   6.561   5.185   1.571  0.3105 -0.8766  0.6140
 1085UDC     C911933   6.680   5.156   1.476  0.5312  0.8439 -1.5298
 1085UDC    C1011934   6.640   5.026   1.407 -0.4769 -0.2974 -0.9042
 1085UDC    C1111935   6.649   4.900   1.494  1.2426 -0.1493 -0.5765
 1086UDC     C111936  16.653   3.228  17.535  0.3921  0.0184 -0.8420
 1086UDC     C211937  16.612   3.216  17.391 -0.1241 -1.1016 -0.4994
 1086UDC     C311938  16.750   3.200  17.325  0.8292 -0.5188 -0.1212
 1086UDC     C411939  16.826   3.339  17.305 -0.4581 -0.4049  0.6117
 1086UDC     C511940  16.711   3.441  17.301  0.9652 -0.3478 -0.0872
 1086UDC     C611941  16.750   3.575  17.256  0.1106  0.1065 -0.1286
 1086UDC     C711942  16.654   3.689  17.304 -0.7713 -0.1292 -0.1041
 1086UDC     C811943  16.755   3.811  17.321 -0.0699 -0.6704  1.0680
 1086UDC     C911944  16.740   3.916  17.437  0.6789  0.1177 -0.8275
 1086UDC    C1011945  16.661   4.050  17.410  0.0200 -0.1785 -0.7955
 1086UDC    C1111946  16.747   4.130  17.306 -1.0980  0.4669  0.1614
 1087UDC     C111947   0.548   4.063  10.854  0.7483 -0.3066 -0.6542
 1087UDC     C211948   0.469   3.932  10.841  0.2494  0.2782 -0.7205
 1087UDC     C311949   0.560   3.815  10.796 -0.3574  0.0430  0.5371
 1087UDC     C411950   0.647   3.759  10.911 -0.3595 -0.1277  0.3942
 1087UDC     C511951   0.566   3.715  11.045  0.3198 -0.4588  0.4442
 1087UDC     C611952   0.651   3.623  11.145  0.8017  0.4603  0.2048
 1087UDC     C711953   0.589   3.587  11.286 -0.5400 -0.6200 -0.4411
 1087UDC     C811954   0.675   3.548  11.399 -0.4161  0.0632 -0.7432
 1087UDC     C911955   0.580   3.524  11.521 -1.0045  0.9465  0.1326
 1087UDC    C1011956   0.668   3.479  11.639  0.6098 -0.7740 -0.2416
 1087UDC    C1111957   0.781   3.379  11.629 -0.1093  0.5100  0.0058
 1088UDC     C111958  16.638   4.507   9.154  0.1962 -0.3896 -0.5144
 1088UDC     C211959  16.651   4.663   9.134  0.6554  0.6335 -1.2927
 1088UDC     C311960  16.610   4.754   9.249 -0.7192  1.3928  0.1774
 1088UDC     C411961  16.599   4.679   9.376 -0.3835  0.6268 -0.0537
 1088UDC     C511962  16.651   4.777   9.486  0.0745 -0.7426 -0.9325
 1088UDC     C611963  16.575   4.891   9.553  0.4199 -0.1368  0.3808
 1088UDC     C711964  16.655   4.951   9.667  0.0828 -0.1770  0.3814
 1088UDC     C811965  16.666   4.853   9.783  0.1731 -0.4608 -0.1514
 1088UDC     C911966  16.657   4.912   9.925 -0.3294  0.3148  0.0903
 1088UDC    C1011967  16.791   4.930  10.006 -1.2094  0.0805 -0.0893
 1088UDC    C1111968  16.899   5.032   9.948 -0.0085  1.2447  0.7253
 1089UDC     C111969   3.389   7.800  13.348  0.2257 -1.0533 -0.3075
 1089UDC     C211970   3.289   7.898  13.393 -0.0430 -0.8514  0.2931
 1089UDC     C311971   3.159   7.913  13.319 -1.0341 -0.5696  0.4280
 1089UDC     C411972   3.070   8.024  13.370  0.7117 -0.7469 -0.2395
 1089UDC     C511973   2.949   8.071  13.287  0.8508 -0.3804  0.0924
 1089UDC     C611974   2.862   8.200  13.295  0.1180  0.4640 -0.0409
 1089UDC     C711975   2.918   8.333  13.347 -0.5834 -0.7110 -0.2468
 1089UDC     C811976   2.831   8.457  13.371  0.1532 -0.6425  0.0651
 1089UDC     C911977   2.738   8.490  13.251 -1.0460  0.3899 -0.3386
 1089UDC    C1011978   2.593   8.539  13.287  0.8545 -1.4121  0.8103
 1089UDC    C1111979   2.516   8.557  13.156 -0.0642 -0.1317 -0.4463
 1090UDC     C111980  14.698   8.209  18.475 -0.6187  0.3971 -0.4360
 1090UDC     C211981  14.599   8.085  18.470  0.9091 -1.2785 -0.4234
 1090UDC     C311982  14.563   8.032  18.328  0.7380 -0.3730  0.8887
 1090UDC     C411983  14.544   8.149  18.223  0.3068 -0.1000  0.6149
 1090UDC     C511984  14.421   8.235  18.250  0.2399 -0.1886  0.6030
 1090UDC     C611985  14.387   8.347  18.144  0.3786  1.0843 -0.9491
 1090UDC     C711986  14.282   8.435  18.206  0.4111 -0.0990  0.1907
 1090UDC     C811987  14.175   8.502  18.118  0.7284 -0.4731 -0.4548
 1090UDC     C911988  14.119   8.389  18.040  0.0384  0.6041  0.2803
 1090UDC    C1011989  14.013   8.418  17.930 -0.9976 -0.7763 -0.0189
 1090UDC    C1111990  14.015   8.282  17.857 -0.3311 -0.1323 -0.8882
 1091UDC     C111991   9.118   9.514   9.858 -0.1055  0.4842  0.5609
 1091UDC     C211992   9.045   9.408   9.771  0.8820  0.0471  0.4555
 1091UDC     C311993   9.130   9.291   9.741  0.2796  0.8547 -1.1603
 1091UDC     C411994   9.170   9.204   9.871 -0.8179 -0.4727  0.7921
 1091UDC     C511995   9.269   9.096   9.832  0.3555  1.3723  0.0201
 1091UDC     C611996   9.208   9.029   9.708  0.2390  0.5083  0.4994
 1091UDC     C711997   9.313   8.947   9.638 -0.5352 -0.5376 -0.0089
 1091UDC     C811998   9.259   8.824   9.562 -2.0148  0.1378  0.0834
 1091UDC     C911999   9.340   8.701   9.524 -0.4400 -0.0256  0.5873
 1091UDC    C1012000   9.360   8.687   9.369  0.0043 -0.0281  1.2952
 1091UDC    C1112001   9.224   8.635   9.321  0.4477 -0.4534 -0.9799
 1092UDC     C112002  13.403   0.477  15.771  0.3654 -0.9212 -0.9712
 1092UDC     C212003  13.493   0.536  15.872 -0.3885 -0.4179 -0.1291
 1092UDC     C312004  13.626   0.586  15.818 -0.0290  1.6280 -0.0299
 1092UDC     C412005  13.743   0.625  15.909  0.3587  0.2108  0.2729
 1092UDC     C512006  13.851   0.728  15.858  1.1250 -0.1727 -0.7163
 1092UDC     C612007  13.933   0.664  15.743  1.0245 -0.2396 -0.5069
 1092UDC     C712008  14.055   0.753  15.718 -0.7075  0.3428  0.0494
 1092UDC     C812009  14.066   0.808  15.570 -0.2351 -0.2608  0.3826
 1092UDC     C912010  14.127   0.705  15.477 -0.8717 -0.5182  0.2888
 1092UDC    C1012011  14.112   0.748  15.328 -0.2502  0.6180 -0.3560
 1092UDC    C1112012  13.977   0.725  15.257  0.1360 -0.8007 -0.6280
 1093UDC     C112013   3.064  13.920   3.481  0.9814 -0.6870  1.0880
 1093UDC     C212014   3.164  13.896   3.596 -1.0165 -0.6783 -0.2570
 1093UDC     C312015   3.110  13.871   3.739 -0.2988  0.4707  0.2863
 1093UDC     C412016   3.035  13.736   3.726  0.0462 -0.3820  0.1505
 1093UDC     C512017   2.890  13.719   3.671 -0.6455 -0.6982 -0.6145
 1093UDC     C612018   2.861  13.591   3.597  0.2685  0.1883  1.1279
 1093UDC     C712019   2.719  13.542   3.576  0.3829 -0.0505  0.5593
 1093UDC     C812020   2.663  13.500   3.715  0.0243  0.9232 -1.5521
 1093UDC     C912021   2.516  13.444   3.721 -0.6537  0.1576 -0.1731
 1093UDC    C1012022   2.435  13.420   3.856 -0.6914 -0.8174  0.1496
 1093UDC    C1112023   2.516  13.343   3.957 -1.3896  0.0624  0.7257
 1094UDC     C112024   5.077   7.627  16.991  0.4646  0.9349 -0.0594
 1094UDC     C212025   5.202   7.688  16.936  0.0069  0.6147  0.4065
 1094UDC     C312026   5.205   7.839  16.961  0.5879 -0.6217 -0.0030
 1094UDC     C412027   5.310   7.910  16.876  0.0906  0.1539 -0.9231
 1094UDC     C512028   5.326   8.053  16.938 -0.5009 -0.8518  0.1795
 1094UDC     C612029   5.454   8.136  16.897 -0.8240  0.5862  0.2230
 1094UDC     C712030   5.588   8.088  16.963  0.3694  0.0339 -1.8180
 1094UDC     C812031   5.728   8.144  16.929 -0.2098  0.1446  1.7006
 1094UDC     C912032   5.851   8.060  16.961 -0.0150  0.6682  0.6926
 1094UDC    C1012033   5.850   7.910  17.008 -0.5271 -0.5712  0.0915
 1094UDC    C1112034   5.882   7.815  16.895  0.1907 -0.5107  0.1115
 1095UDC     C112035   8.669   9.157  16.762  0.0491 -0.0481  0.1685
 1095UDC     C212036   8.528   9.105  16.742  0.7757  0.1829  0.6583
 1095UDC     C312037   8.528   9.000  16.623  0.4565  0.5123  0.3004
 1095UDC     C412038   8.557   9.038  16.479  0.8035 -0.3593  0.5189
 1095UDC     C512039   8.552   8.909  16.398 -0.3373  0.3489 -0.1047
 1095UDC     C612040   8.679   8.814  16.430 -0.0427  0.2073  0.0455
 1095UDC     C712041   8.674   8.679  16.360 -0.7448  0.3213 -0.2680
 1095UDC     C812042   8.776   8.577  16.385 -0.2585  0.4524 -0.0485
 1095UDC     C912043   8.814   8.538  16.528  0.5829 -0.6378  1.1492
 1095UDC    C1012044   8.696   8.460  16.589 -0.0750 -0.0922  0.6031
 1095UDC    C1112045   8.677   8.318  16.531 -0.5896 -0.7993  0.1336
 1096UDC     C112046  15.512   1.056   5.774  0.2619  0.6749  0.0005
 1096UDC     C212047  15.599   0.929   5.779 -0.5006  0.0852 -0.2722
 1096UDC     C312048  15.542   0.817   5.684 -1.1653  0.1077  0.3833
 1096UDC     C412049  15.603   0.679   5.703  0.1813 -0.6125 -1.4364
 1096UDC     C512050  15.749   0.646   5.674  0.9010 -0.6383  0.9269
 1096UDC     C612051  15.818   0.587   5.794 -0.1524 -0.0440  0.9918
 1096UDC     C712052  15.763   0.464   5.849  0.5149  0.6279 -0.4877
 1096UDC     C812053  15.868   0.381   5.925  0.1908  0.2596 -0.6547
 1096UDC     C912054  15.810   0.241   5.948 -0.1436  0.1661  0.2419
 1096UDC    C1012055  15.684   0.243   6.039 -0.3175  0.5598 -0.7424
 1096UDC    C1112056  15.547   0.209   5.977 -0.4619 -0.1226  0.2521
 1097UDC     C112057  17.673   5.521   3.918 -0.0296  0.2518  0.2751
 1097UDC     C212058  17.732   5.384   3.900  1.1095 -2.1439  0.0055
 1097UDC     C312059  17.882   5.383   3.869  0.4788  0.1974 -0.4813
 1097UDC     C412060  17.912   5.236   3.844 -0.8275 -0.8743 -0.5542
 1097UDC     C512061  18.033   5.190   3.929 -1.2945 -0.5950  0.5000
 1097UDC     C612062  18.091   5.064   3.866  0.6026  0.5182  0.4325
 1097UDC     C712063  18.211   5.019   3.950  0.9646  1.2189  0.6373
 1097UDC     C812064  18.338   5.097   3.909 -0.4037 -0.1534  0.0164
 1097UDC     C912065  18.471   5.014   3.887  0.2704  0.5990  0.2517
 1097UDC    C1012066  18.584   5.077   3.805 -0.6812 -0.7208  0.3439
 1097UDC    C1112067  18.609   5.218   3.850  0.6636 -1.3350 -0.3358
 1098UDC     C112068  15.630   9.195  15.972  0.2973 -0.8393  0.2892
 1098UDC     C212069  15.655   9.131  16.112  0.2569  0.0202  0.7991
 1098UDC     C312070  15.539   9.067  16.185  0.4496 -0.2952  0.7652
 1098UDC     C412071  15.517   8.942  16.101  0.5372  0.0180  0.6252
 1098UDC     C512072  15.385   8.862  16.118  0.0887  0.6249  0.6421
 1098UDC     C612073  15.393   8.767  16.230  0.0647  0.5051 -0.6804
 1098UDC     C712074  15.285   8.659  16.238  0.0096  0.5824  1.3296
 1098UDC     C812075  15.288   8.569  16.367  0.2315  0.8258 -0.4993
 1098UDC     C912076  15.183   8.452  16.371 -0.3611 -0.5935 -0.5955
 1098UDC    C1012077  15.146   8.376  16.499 -0.4903  0.0725 -0.7066
 1098UDC    C1112078  15.074   8.446  16.607 -0.4482 -0.4495  0.3141
 1099UDC     C112079   6.232  15.140   8.515 -0.5331 -0.1508 -0.0442
 1099UDC     C212080   6.260  15.201   8.379 -0.3912  0.1027 -0.8285
 1099UDC     C312081   6.219  15.103   8.267  0.1599  0.1506  0.7082
 1099UDC     C412082   6.066  15.084   8.263 -0.1336 -0.2060 -0.4613
 1099UDC     C512083   6.004  15.004   8.141 -0.9542 -1.4906 -0.3463
 1099UDC     C612084   5.855  15.043   8.110 -0.7484 -0.5372 -0.0414
 1099UDC     C712085   5.763  14.952   8.037  0.5187  0.7228 -0.4649
 1099UDC     C812086   5.744  14.979   7.889 -0.4871 -0.1903  0.9975
 1099UDC     C912087   5.650  15.100   7.877  0.2169 -0.6607  0.3717
 1099UDC    C1012088   5.648  15.165   7.739 -0.6315 -0.6658  0.5551
 1099UDC    C1112089   5.585  15.097   7.617 -0.2900  0.7976  0.6495
 1100UDC     C112090  14.269  12.817  15.590  1.0907 -0.2954  0.2323
 1100UDC     C212091  14.259  12.831  15.743  0.1654  0.7190 -1.3520
 1100UDC     C312092  14.363  12.935  15.783  0.3397 -0.1024 -0.3427
 1100UDC     C412093  14.377  12.970  15.931  1.7708 -0.3335  0.3542
 1100UDC     C512094  14.492  13.065  15.962  0.7635  0.2799  0.8925
 1100UDC     C612095  14.452  13.214  15.946 -1.5217  0.6014  0.6779
 1100UDC     C712096  14.346  13.259  16.040 -0.2985 -0.0971 -0.3247
 1100UDC     C812097  14.325  13.413  16.045  0.3555 -0.3946  0.5112
 1100UDC     C912098  14.240  13.482  16.139  0.3216 -0.2141 -0.4784
 1100UDC    C1012099  14.208  13.623  16.101 -0.8159 -0.8908  0.2925
 1100UDC    C1112100  14.338  13.711  16.090  0.3690 -0.6202 -1.0215
 1101UDC     C112101   9.713   7.288  14.524 -0.4689 -0.7953  0.1361
 1101UDC     C212102   9.678   7.153  14.463  0.2837  1.0110 -0.1506
 1101UDC     C312103   9.530   7.108  14.491  0.0307  0.2079  0.4703
 1101UDC     C412104   9.524   6.994  14.588 -0.3668 -0.3092 -0.6448
 1101UDC     C512105   9.384   6.944  14.620  0.6855  0.1392 -0.0013
 1101UDC     C612106   9.292   7.000  14.737  1.1738  0.4445 -0.1779
 1101UDC     C712107   9.362   7.006  14.872  0.1198  0.7604 -0.3295
 1101UDC     C812108   9.265   7.017  14.993  0.6667 -1.0696  0.7820
 1101UDC     C912109   9.310   7.090  15.125 -0.1182  0.4960  0.2736
 1101UDC    C1012110   9.206   7.085  15.245 -0.1269 -0.0093  0.1816
 1101UDC    C1112111   9.259   7.190  15.334 -0.4346 -0.0658  0.4354
 1102UDC     C112112  11.905  15.615  18.524 -0.2632 -0.2336 -0.0852
 1102UDC     C212113  11.767  15.676  18.483 -0.6273 -0.1410 -0.0186
 1102UDC     C312114  11.650  15.585  18.528 -0.2802 -1.0789 -0.0239
 1102UDC     C412115  11.517  15.654  18.502  0.3004 -0.1795 -0.2367
 1102UDC     C512116  11.398  15.559  18.502  0.0531 -0.4341 -0.6044
 1102UDC     C612117  11.275  15.632  18.560  0.7258  0.2146  0.1961
 1102UDC     C712118  11.141  15.550  18.572  0.2458  0.0726  0.0896
 1102UDC     C812119  11.030  15.651  18.613 -0.7496 -0.2589  0.0738
 1102UDC     C912120  10.889  15.616  18.657  0.1168 -0.8399 -0.2270
 1102UDC    C1012121  10.777  15.703  18.708 -0.1562  0.1659  0.4900
 1102UDC    C1112122  10.742  15.831  18.629  1.3825 -0.3802  0.6251
 1103UDC     C112123   6.549   8.718   5.272  0.3755  0.2894 -0.2814
 1103UDC     C212124   6.472   8.819   5.187  0.2475 -0.2783  1.1869
 1103UDC     C312125   6.489   8.959   5.247  0.8793  1.2377 -0.0299
 1103UDC     C412126   6.454   9.066   5.136 -0.2513 -0.0694  0.0544
 1103UDC     C512127   6.455   9.213   5.160 -0.4332 -0.5375 -0.8515
 1103UDC     C612128   6.333   9.290   5.222 -1.0312  0.8864 -0.0007
 1103UDC     C712129   6.345   9.441   5.222  0.8237  0.3965 -0.8506
 1103UDC     C812130   6.233   9.499   5.315 -1.2278 -0.3053 -0.5003
 1103UDC     C912131   6.092   9.461   5.291  0.9724 -0.1607  0.3787
 1103UDC    C1012132   5.985   9.553   5.357  0.3033 -0.2189  0.0457
 1103UDC    C1112133   5.837   9.531   5.348 -0.3932  0.2608 -0.2220
 1104UDC     C112134  16.904   4.269   9.167 -0.5588  0.5492  0.3702
 1104UDC     C212135  17.015   4.370   9.130  0.7725  0.6844  0.8944
 1104UDC     C312136  17.138   4.294   9.081  0.8285 -0.4734  0.5794
 1104UDC     C412137  17.260   4.388   9.076  1.3821  0.5306 -1.3246
 1104UDC     C512138  17.373   4.357   8.981 -0.1406 -1.3955  0.8831
 1104UDC     C612139  17.506   4.440   8.994  0.1284 -0.2693  0.3265
 1104UDC     C712140  17.507   4.596   9.010  1.0114  0.5471  0.3019
 1104UDC     C812141  17.620   4.637   9.106 -0.5207 -1.1540 -0.1623
 1104UDC     C912142  17.659   4.781   9.085 -0.2004  0.4099 -0.4970
 1104UDC    C1012143  17.802   4.818   9.136 -0.4117 -0.2780  0.7336
 1104UDC    C1112144  17.841   4.811   9.285 -0.7218 -0.1602  0.7032
 1105UDC     C112145  13.315   6.424  16.914 -1.3652  0.2176  0.0045
 1105UDC     C212146  13.444   6.489  16.960 -1.6543  0.1571 -0.2183
 1105UDC     C312147  13.540   6.538  16.845 -0.1686 -0.0312  0.3175
 1105UDC     C412148  13.458   6.625  16.747  0.8285  0.7111 -0.4031
 1105UDC     C512149  13.556   6.712  16.664  0.4531  0.5466 -0.5271
 1105UDC     C612150  13.500   6.831  16.576  0.3559 -0.4080 -0.3194
 1105UDC     C712151  13.604   6.914  16.503 -0.7745 -1.1467  0.9552
 1105UDC     C812152  13.737   6.935  16.582 -0.5231  0.1804 -0.2618
 1105UDC     C912153  13.833   7.019  16.497 -0.8050 -0.2951  0.2334
 1105UDC    C1012154  13.966   7.031  16.573  0.2871 -0.5838  0.5961
 1105UDC    C1112155  14.072   7.083  16.476  0.3159 -0.2061 -0.9308
 1106UDC     C112156  10.601  17.108  14.049 -0.6654  0.5383 -0.1890
 1106UDC     C212157  10.616  17.032  13.917  0.3674  0.0864  0.3872
 1106UDC     C312158  10.484  17.032  13.851  0.8027  1.0414  1.1108
 1106UDC     C412159  10.496  16.987  13.704  0.7530  1.5797  0.2621
 1106UDC     C512160  10.376  17.009  13.612  0.5260 -0.2516 -0.1449
 1106UDC     C612161  10.360  17.158  13.563  0.7000  0.0576  0.1456
 1106UDC     C712162  10.227  17.210  13.517 -0.6618 -0.2084 -1.0578
 1106UDC     C812163  10.107  17.209  13.609 -0.5652  0.0826 -0.0676
 1106UDC     C912164   9.964  17.231  13.551  0.0902  0.3080 -0.7948
 1106UDC    C1012165   9.931  17.134  13.432 -0.2643  0.0311 -0.5563
 1106UDC    C1112166   9.781  17.115  13.404  0.9019 -0.3914 -0.9672
 1107UDC     C112167  14.153   3.517  19.329  0.5307  1.0119 -0.1857
 1107UDC     C212168  14.140   3.582  19.467 -0.1782  0.2345 -0.4987
 1107UDC     C312169  14.227   3.526  19.577 -0.9947  0.6894  0.5155
 1107UDC     C412170  14.200   3.375  19.590  0.6088  0.9533  0.3705
 1107UDC     C512171  14.199   3.335  19.740  0.1251  1.1274 -0.3886
 1107UDC     C612172  14.109   3.430  19.827  0.7205 -0.7363 -0.0155
 1107UDC     C712173  14.135   3.424  19.983 -0.7213 -1.1247 -0.7013
 1107UDC     C812174  14.245   3.365  20.057  0.5099 -1.1066 -0.2609
 1107UDC     C912175  14.380   3.427  20.006  0.1519 -0.4395  0.0194
 1107UDC    C1012176  14.507   3.373  20.061 -0.6071  0.4315 -0.1323
 1107UDC    C1112177  14.616   3.346  19.953 -0.9195  0.1723 -0.3199
 1108UDC     C112178   9.243  16.689  18.051  0.5589 -0.1228 -0.1524
 1108UDC     C212179   9.381  16.617  18.067  0.5495  0.3864  0.6666
 1108UDC     C312180   9.416  16.510  18.171 -1.1858  0.0591 -0.3665
 1108UDC     C412181   9.559  16.471  18.136  0.2561  0.2986  0.1210
 1108UDC     C512182   9.564  16.382  18.007  0.0687  0.0936  1.0743
 1108UDC     C612183   9.591  16.231  18.024 -0.2146 -0.0451 -0.4728
 1108UDC     C712184   9.485  16.152  18.105  0.2715  0.5087  0.0986
 1108UDC     C812185   9.524  16.015  18.151  0.4691  0.5475 -0.9356
 1108UDC     C912186   9.464  15.941  18.271 -0.6679 -0.4828 -0.2991
 1108UDC    C1012187   9.513  16.001  18.411 -0.8459  0.1896  0.2644
 1108UDC    C1112188   9.406  16.075  18.489 -0.7133 -0.2841 -0.2836
 1109UDC     C112189   4.674  14.432   1.690 -0.5040  0.2560 -0.0505
 1109UDC     C212190   4.783  14.536   1.692 -0.4685  0.1081  1.3906
 1109UDC     C312191   4.739  14.679   1.739  0.1218 -0.1080 -0.9616
 1109UDC     C412192   4.861  14.779   1.765 -0.2854  0.7827  0.2193
 1109UDC     C512193   4.898  14.888   1.657 -0.1960 -1.6343  0.0108
 1109UDC     C612194   4.896  14.831   1.510 -0.3835 -0.6282 -0.6536
 1109UDC     C712195   4.965  14.922   1.407 -0.5107 -0.2439 -0.2428
 1109UDC     C812196   5.120  14.926   1.420  0.9344  0.7164 -0.0178
 1109UDC     C912197   5.208  14.999   1.319 -0.2794  0.4661 -0.1125
 1109UDC    C1012198   5.204  14.987   1.170  0.9181  0.1873  0.8534
 1109UDC    C1112199   5.276  15.091   1.085  0.9313 -0.6387  0.6915
 1110UDC     C112200  18.438   6.712  10.901 -0.8825  0.5896 -0.2504
 1110UDC     C212201  18.347   6.764  10.794  0.3311  0.0314  0.4395
 1110UDC     C312202  18.198   6.731  10.801 -0.2858  0.4064  0.7483
 1110UDC     C412203  18.121   6.851  10.861  0.7873 -0.4512  0.1771
 1110UDC     C512204  18.108   6.981  10.775 -0.9889 -0.5983  0.2859
 1110UDC     C612205  17.986   7.065  10.834  0.3799 -0.1122 -0.1890
 1110UDC     C712206  17.956   7.186  10.743 -0.6463 -0.4338  1.0868
 1110UDC     C812207  17.838   7.283  10.777 -0.2412  0.0925 -0.9106
 1110UDC     C912208  17.796   7.389  10.675  1.2516  0.1930  1.1599
 1110UDC    C1012209  17.689   7.482  10.718 -0.1100  0.3035 -0.2427
 1110UDC    C1112210  17.575   7.398  10.788  0.1624 -0.4876 -0.3988
 1111UDC     C112211   6.593  10.358   3.281  0.2286 -0.7173  0.1873
 1111UDC     C212212   6.706  10.460   3.312  0.2875  0.1276  0.7448
 1111UDC     C312213   6.809  10.394   3.408  0.9089 -0.6313  0.3597
 1111UDC     C412214   6.824  10.244   3.401 -0.0503 -0.6186 -0.5872
 1111UDC     C512215   6.944  10.199   3.323 -0.2362  0.3862  0.9324
 1111UDC     C612216   6.962  10.046   3.333 -0.8647 -0.8075 -0.3415
 1111UDC     C712217   7.016   9.999   3.468  0.7175  0.1171 -0.4882
 1111UDC     C812218   7.102   9.874   3.427  0.1486  1.3527 -0.9111
 1111UDC     C912219   7.252   9.898   3.460 -1.4418 -0.1098  0.2027
 1111UDC    C1012220   7.319   9.777   3.392 -0.6682  0.2323  0.1393
 1111UDC    C1112221   7.298   9.749   3.241 -0.1049  0.2633 -0.4049
 1112UDC     C112222   0.261  16.570  13.749  0.3851 -0.6967  0.8803
 1112UDC     C212223   0.185  16.706  13.712  0.3069  0.3277  0.9756
 1112UDC     C312224   0.088  16.718  13.588 -0.3755  0.4690  0.1162
 1112UDC     C412225   0.021  16.589  13.543  0.3268 -0.6210  0.6970
 1112UDC     C512226  -0.115  16.629  13.473  0.0933  0.5645 -1.1592
 1112UDC     C612227  -0.111  16.735  13.361  0.1445  1.2586 -1.1032
 1112UDC     C712228  -0.078  16.673  13.227 -0.2881  0.1026 -0.2642
 1112UDC     C812229  -0.200  16.641  13.145  0.0760 -0.3527 -0.2373
 1112UDC     C912230  -0.194  16.594  12.994  0.5934 -0.4073 -0.8513
 1112UDC    C1012231  -0.127  16.460  12.947  0.0409 -1.1912  0.0669
 1112UDC    C1112232  -0.091  16.450  12.792  0.7219 -0.1901  0.2394
 1113UDC     C112233  15.066   7.611  16.859  1.7058 -0.0221  0.4570
 1113UDC     C212234  14.980   7.503  16.922 -0.8185 -0.2395  0.5499
 1113UDC     C312235  14.837   7.532  16.877  0.5125 -0.0510  0.0796
 1113UDC     C412236  14.831   7.461  16.740 -0.3639  0.1616  0.7345
 1113UDC     C512237  14.695   7.421  16.688  0.1496  0.5781  0.4286
 1113UDC     C612238  14.679   7.282  16.751 -0.3869 -0.4965  0.2228
 1113UDC     C712239  14.573   7.184  16.691 -0.6135  0.4695  0.2247
 1113UDC     C812240  14.570   7.045  16.742 -0.9101  0.2466 -0.3928
 1113UDC     C912241  14.710   6.973  16.759 -0.4277 -0.4422  0.9362
 1113UDC    C1012242  14.748   6.892  16.631  0.2685  0.6335  1.3292
 1113UDC    C1112243  14.845   6.938  16.514 -0.5587 -0.3042 -0.5825
 1114UDC     C112244   9.393  13.248   4.202 -0.0274  0.5606 -0.3635
 1114UDC     C212245   9.472  13.146   4.280 -0.1607 -0.0983  1.2045
 1114UDC     C312246   9.513  13.024   4.187 -0.0772  1.1758  0.3912
 1114UDC     C412247   9.572  12.896   4.262 -0.1215  0.5505  0.0385
 1114UDC     C512248   9.625  12.800   4.152 -0.5852  0.8414  0.0578
 1114UDC     C612249   9.637  12.646   4.185  0.1746 -0.0341  0.3315
 1114UDC     C712250   9.502  12.564   4.167  0.1653  0.1399  0.5093
 1114UDC     C812251   9.514  12.426   4.234 -0.9250  0.3836 -0.2382
 1114UDC     C912252   9.530  12.455   4.386 -0.0894 -0.0119 -0.0475
 1114UDC    C1012253   9.525  12.314   4.443  0.3947 -0.7060 -0.0225
 1114UDC    C1112254   9.375  12.276   4.427 -0.1916  0.9791  0.8860
 1115UDC     C112255   0.601  12.496   5.142  0.2738  0.3018 -0.9046
 1115UDC     C212256   0.561  12.578   5.267  1.3196 -0.4864  0.2222
 1115UDC     C312257   0.592  12.504   5.397 -0.4983 -0.8485 -0.2162
 1115UDC     C412258   0.473  12.514   5.493  1.0999  0.8003  0.2558
 1115UDC     C512259   0.487  12.379   5.578  1.0895  0.1444  0.7588
 1115UDC     C612260   0.500  12.252   5.481 -0.1494  0.3043  1.1222
 1115UDC     C712261   0.519  12.126   5.568 -0.1381  0.2908 -0.1735
 1115UDC     C812262   0.419  12.127   5.684 -0.1602 -1.1746  0.6357
 1115UDC     C912263   0.393  12.000   5.764  0.2501 -0.0916  0.1413
 1115UDC    C1012264   0.323  11.887   5.678  1.1082 -0.3552 -0.3524
 1115UDC    C1112265   0.174  11.923   5.651  0.1529  1.1693  0.0099
 1116UDC     C112266   8.103  17.352   1.319  0.8081  0.3332  0.2054
 1116UDC     C212267   8.083  17.219   1.243 -0.1472 -1.2059 -0.4314
 1116UDC     C312268   8.088  17.103   1.340 -0.1028 -0.6041  0.1203
 1116UDC     C412269   8.014  17.142   1.459 -0.3155  0.1525  0.2067
 1116UDC     C512270   8.055  17.047   1.579  0.1466 -0.7133 -0.4973
 1116UDC     C612271   8.047  16.896   1.537  0.8507  0.5592 -0.4070
 1116UDC     C712272   8.076  16.798   1.653  1.2320 -0.1169 -1.0209
 1116UDC     C812273   8.115  16.656   1.607 -0.0182  0.2475 -0.9190
 1116UDC     C912274   8.188  16.655   1.467  0.1066  0.1911 -0.1729
 1116UDC    C1012275   8.248  16.522   1.411 -1.8140  0.5586  0.2340
 1116UDC    C1112276   8.369  16.464   1.493  0.6722 -0.4410 -0.3487
 1117UDC     C112277   1.558  12.672   9.279 -0.7798 -0.3402 -0.3367
 1117UDC     C212278   1.556  12.608   9.419  0.0215 -0.2772  0.3692
 1117UDC     C312279   1.421  12.654   9.483 -0.2649  0.1463 -0.9493
 1117UDC     C412280   1.296  12.602   9.414 -0.5123 -0.0961 -0.4040
 1117UDC     C512281   1.163  12.644   9.479  0.0080  0.3955 -1.4122
 1117UDC     C612282   1.047  12.711   9.410  0.1321 -1.1610  0.8152
 1117UDC     C712283   0.928  12.789   9.482 -0.9118  0.3316 -0.1520
 1117UDC     C812284   0.821  12.848   9.389  0.3492  1.1750 -0.0516
 1117UDC     C912285   0.740  12.756   9.297 -0.3866  0.0843 -1.3409
 1117UDC    C1012286   0.642  12.655   9.359  0.5439 -0.0382 -0.4033
 1117UDC    C1112287   0.595  12.525   9.286 -0.0881  0.3120 -0.7391
 1118UDC     C112288  10.860  16.218  11.084  0.5453  0.4384  0.2350
 1118UDC     C212289  10.759  16.131  11.004 -0.1146  0.1991  0.4713
 1118UDC     C312290  10.611  16.175  11.014  0.8411  0.5244 -0.3832
 1118UDC     C412291  10.593  16.330  10.994 -0.2476  0.9656  0.1133
 1118UDC     C512292  10.440  16.364  10.977 -0.7303 -0.1523  0.2984
 1118UDC     C612293  10.425  16.516  11.025 -0.1092 -0.1969  0.3256
 1118UDC     C712294  10.528  16.610  10.964  0.6458 -0.3373  0.1030
 1118UDC     C812295  10.531  16.754  11.021  0.1766  1.5094  0.0399
 1118UDC     C912296  10.549  16.769  11.179 -0.6779  0.4412  0.2017
 1118UDC    C1012297  10.567  16.913  11.238  1.5283 -0.2179  0.1994
 1118UDC    C1112298  10.683  16.985  11.161  0.2241  0.1652 -0.4914
 1119UDC     C112299   1.994   2.969   5.838  0.4882 -0.9603  1.0633
 1119UDC     C212300   1.873   3.068   5.819 -0.5893  0.6249 -0.3575
 1119UDC     C312301   1.855   3.132   5.960 -0.7801  0.9837 -0.0973
 1119UDC     C412302   1.803   3.018   6.050 -0.5671 -0.2309  0.4000
 1119UDC     C512303   1.746   3.053   6.191  0.7418  0.2400  0.1941
 1119UDC     C612304   1.723   2.927   6.275  0.5123 -0.3879  0.4241
 1119UDC     C712305   1.656   2.951   6.405  0.7427  0.0384 -0.1793
 1119UDC     C812306   1.661   2.824   6.506  1.2865 -0.4420  0.7160
 1119UDC     C912307   1.567   2.852   6.619  1.4222 -0.6580 -1.6359
 1119UDC    C1012308   1.501   2.724   6.661 -0.2587  0.7033 -0.1501
 1119UDC    C1112309   1.612   2.639   6.702  0.5944  0.4852 -0.3691
 1120UDC     C112310  19.366  19.662   8.358 -0.6315  0.4690  0.2705
 1120UDC     C212311  19.287  19.670   8.230 -0.7006  0.5365 -0.7104
 1120UDC     C312312  19.159  19.594   8.213  0.4442 -0.3523  0.6051
 1120UDC     C412313  19.103  19.613   8.073 -0.6647 -0.1599  0.1086
 1120UDC     C512314  18.959  19.617   8.108 -0.0670  0.0246  0.4961
 1120UDC     C612315  18.880  19.503   8.039 -0.5568  0.0156 -0.6377
 1120UDC     C712316  18.728  19.490   8.052  1.6556  0.0448 -0.3162
 1120UDC     C812317  18.691  19.350   8.012 -0.4881  0.3312  1.0062
 1120UDC     C912318  18.766  19.317   7.883  0.4643 -0.7895 -0.4881
 1120UDC    C1012319  18.737  19.175   7.837  1.2984 -0.5415  1.0779
 1120UDC    C1112320  18.668  19.165   7.699 -0.9088  1.7819  0.1306
 1121UDC     C112321  13.871   0.671  10.832 -0.3860 -1.3749 -0.0138
 1121UDC     C212322  13.948   0.662  10.702 -0.9746  0.2133 -0.2805
 1121UDC     C312323  14.079   0.584  10.719  0.2551  0.3667  0.0718
 1121UDC     C412324  14.180   0.604  10.603 -0.7972 -1.0624  0.0805
 1121UDC     C512325  14.334   0.602  10.628 -0.2472 -0.3073 -0.6651
 1121UDC     C612326  14.427   0.658  10.515  1.4712  0.4577  0.6037
 1121UDC     C712327  14.420   0.810  10.490 -0.1078 -0.5389  0.3488
 1121UDC     C812328  14.500   0.885  10.384 -1.3702 -0.4846 -0.4204
 1121UDC     C912329  14.485   1.042  10.385  1.0677  0.8930  0.0207
 1121UDC    C1012330  14.521   1.130  10.510  0.9707 -0.7545  0.1103
 1121UDC    C1112331  14.412   1.133  10.618 -0.3852 -0.5746 -0.5584
 1122UDC     C112332   0.023   0.307   9.300  1.2271 -0.0312  0.3175
 1122UDC     C212333   0.120   0.237   9.207 -0.9266 -0.2505  0.4256
 1122UDC     C312334   0.258   0.190   9.251  0.6026  0.5934  0.0465
 1122UDC     C412335   0.235   0.079   9.350 -0.0790  0.0610  0.0519
 1122UDC     C512336   0.336   0.099   9.456 -0.0577 -0.3646  0.3570
 1122UDC     C612337   0.312   0.229   9.553 -0.7996 -0.4147 -0.3106
 1122UDC     C712338   0.326   0.211   9.708  0.0456 -0.2628 -0.4234
 1122UDC     C812339   0.392   0.344   9.757  0.3479  1.1183 -0.6364
 1122UDC     C912340   0.416   0.325   9.905  0.3659 -0.3731 -0.2002
 1122UDC    C1012341   0.487   0.202   9.965 -0.4915 -0.0721 -1.4088
 1122UDC    C1112342   0.494   0.199  10.122  0.4638 -0.0994 -0.5110
 1123UDC     C112343  16.542   7.053   3.917 -0.1785  1.6195  0.3483
 1123UDC     C212344  16.586   7.028   4.059 -1.2648 -0.6864 -1.3378
 1123UDC     C312345  16.642   7.158   4.126  1.1589  0.1450  0.9330
 1123UDC     C412346  16.563   7.284   4.124 -0.2631 -0.1888 -0.3404
 1123UDC     C512347  16.432   7.264   4.208  0.0719 -0.4987 -0.1125
 1123UDC     C612348  16.351   7.386   4.263 -0.3514  0.6318 -0.6024
 1123UDC     C712349  16.193   7.391   4.248 -0.3425  0.4025  0.3352
 1123UDC     C812350  16.123   7.526   4.280  0.8200 -0.5380 -0.2228
 1123UDC     C912351  16.066   7.576   4.154  0.1704 -0.5389  0.3128
 1123UDC    C1012352  15.911   7.597   4.151 -1.6355 -1.3257  0.6436
 1123UDC    C1112353  15.817   7.485   4.205  0.6418 -0.7830  0.0257
 1124UDC     C112354   2.825   7.641   6.179  0.5778 -1.5460 -0.2478
 1124UDC     C212355   2.948   7.651   6.088  0.6196 -0.3865 -0.1188
 1124UDC     C312356   3.070   7.578   6.134 -0.4924 -0.3085  0.0119
 1124UDC     C412357   3.049   7.428   6.096 -0.8675  0.5836 -0.4847
 1124UDC     C512358   3.167   7.322   6.099  0.6034 -0.2822  0.4887
 1124UDC     C612359   3.121   7.177   6.136 -1.0285 -0.0937 -0.3383
 1124UDC     C712360   3.210   7.055   6.163  0.5282 -0.3957  0.4487
 1124UDC     C812361   3.298   7.029   6.038  0.4114 -0.0700  0.3302
 1124UDC     C912362   3.225   6.973   5.910 -0.3638  0.6310  0.7687
 1124UDC    C1012363   3.294   6.998   5.774 -0.2027  0.8005  0.1817
 1124UDC    C1112364   3.205   6.960   5.657  0.0741  0.0027  0.4054
 1125UDC     C112365  17.867  18.270   8.855 -0.4945  0.1835 -0.4030
 1125UDC     C212366  17.860  18.405   8.777  0.2399  0.4253 -0.2603
 1125UDC     C312367  17.799  18.402   8.638 -0.2588 -0.2540 -0.3263
 1125UDC     C412368  17.783  18.548   8.573 -0.9348 -0.0228  0.5632
 1125UDC     C512369  17.905  18.623   8.524 -0.5482 -0.0719  0.4164
 1125UDC     C612370  17.892  18.727   8.422  0.3512  1.0168  0.4902
 1125UDC     C712371  17.878  18.662   8.279  0.5553 -0.6273  0.5501
 1125UDC     C812372  17.895  18.770   8.170  0.9304 -0.0221  0.4090
 1125UDC     C912373  17.889  18.716   8.027 -1.6185  0.2225  0.3722
 1125UDC    C1012374  17.753  18.723   7.961 -0.4337  0.0386  0.3191
 1125UDC    C1112375  17.722  18.858   7.901 -0.5911 -0.2151 -0.6451
 1126UDC     C112376   8.577  14.675   9.518  0.3658 -0.9075 -0.3450
 1126UDC     C212377   8.505  14.586   9.616 -0.4176 -0.5431 -0.9458
 1126UDC     C312378   8.557  14.449   9.660 -0.5733  0.5835  0.2167
 1126UDC     C412379   8.603  14.345   9.550  0.0792  0.0921 -0.0525
 1126UDC     C512380   8.674  14.232   9.626 -0.2307  1.2220  0.4119
 1126UDC     C612381   8.795  14.266   9.713  0.1957 -0.3721 -0.5256
 1126UDC     C712382   8.841  14.143   9.796 -0.5700  0.8251 -0.2730
 1126UDC     C812383   8.723  14.103   9.888  0.2212  0.2078 -0.6991
 1126UDC     C912384   8.784  14.023  10.009 -0.6774  0.1748  0.8930
 1126UDC    C1012385   8.914  14.079  10.063 -0.2823  0.7361 -0.5753
 1126UDC    C1112386   9.001  13.990  10.161 -0.3781  0.0256 -0.0820
 1127UDC     C112387  10.350   0.590   3.287 -0.0751 -0.6877 -0.7018
 1127UDC     C212388  10.332   0.721   3.373  0.1994  0.1022  0.6002
 1127UDC     C312389  10.409   0.847   3.341 -0.3375 -1.2290  1.1382
 1127UDC     C412390  10.418   0.954   3.454 -0.0525 -0.8097 -0.4676
 1127UDC     C512391  10.300   1.040   3.504  1.0732  0.5136 -0.0628
 1127UDC     C612392  10.225   1.013   3.633  0.8213  0.2166  0.9677
 1127UDC     C712393  10.120   1.123   3.653 -0.2166  1.1999 -0.7077
 1127UDC     C812394   9.994   1.059   3.713  0.1132 -0.5060 -1.1711
 1127UDC     C912395   9.904   1.171   3.775  0.2356  0.5351  0.8457
 1127UDC    C1012396   9.991   1.275   3.851  0.2195 -0.7440  0.0864
 1127UDC    C1112397   9.924   1.396   3.928 -0.2019 -0.8686  0.5042
 1128UDC     C112398   1.549   9.591  17.354 -0.5391 -0.1501 -0.0685
 1128UDC     C212399   1.523   9.452  17.299 -0.3175 -0.8969 -0.0457
 1128UDC     C312400   1.658   9.383  17.262  0.6411  0.3805 -0.0978
 1128UDC     C412401   1.694   9.438  17.119 -0.8039  0.4969  0.1865
 1128UDC     C512402   1.825   9.368  17.064  0.1333  0.0055 -1.2232
 1128UDC     C612403   1.870   9.407  16.926  1.0394 -0.0702  0.2926
 1128UDC     C712404   1.760   9.384  16.815 -0.7962 -0.1627  0.7922
 1128UDC     C812405   1.794   9.428  16.666 -0.8970 -0.6129 -0.9531
 1128UDC     C912406   1.682   9.380  16.569  0.1017 -0.2584  0.5076
 1128UDC    C1012407   1.660   9.450  16.439  0.3067 -1.2354  0.0999
 1128UDC    C1112408   1.627   9.595  16.460  0.2657 -0.5297 -0.4693
 1129UDC     C112409   9.405  10.949  17.227  0.4242 -0.4440  0.1568
 1129UDC     C212410   9.351  10.833  17.317  0.8964 -0.1846 -0.3003
 1129UDC     C312411   9.198  10.834  17.312  0.6426  0.8618 -0.2206
 1129UDC     C412412   9.120  10.953  17.362  0.1722 -0.8460  0.3980
 1129UDC     C512413   9.123  10.970  17.517  0.3671  0.3255  0.0839
 1129UDC     C612414   9.257  11.017  17.580 -0.6059 -1.4408  0.3127
 1129UDC     C712415   9.242  11.094  17.704 -0.2231  0.0656 -1.4242
 1129UDC     C812416   9.195  11.247  17.693 -0.3671  0.4203 -0.7357
 1129UDC     C912417   9.222  11.308  17.831 -0.4115 -0.3486 -0.1718
 1129UDC    C1012418   9.349  11.383  17.867  0.5245 -0.3599 -0.4359
 1129UDC    C1112419   9.389  11.516  17.806 -0.9304  0.4989  0.1331
 1130UDC     C112420   4.895  11.134  17.650  0.0264  0.2166 -0.1840
 1130UDC     C212421   4.924  11.234  17.763 -1.1372  0.5121 -0.5700
 1130UDC     C312422   4.825  11.216  17.875  0.2637 -0.4542 -0.5214
 1130UDC     C412423   4.811  11.352  17.951  0.0342 -0.1001 -0.9336
 1130UDC     C512424   4.731  11.333  18.088  0.7507  0.4691  1.5076
 1130UDC     C612425   4.736  11.452  18.184 -0.5796  1.1232 -0.3365
 1130UDC     C712426   4.641  11.458  18.300 -0.9055 -0.9034  0.5498
 1130UDC     C812427   4.497  11.456  18.262  0.3305  0.1648  0.1872
 1130UDC     C912428   4.394  11.460  18.376 -0.1905 -0.7025 -0.1140
 1130UDC    C1012429   4.262  11.435  18.321  0.3357  0.0256 -0.6493
 1130UDC    C1112430   4.149  11.489  18.400 -0.6201 -0.0964  0.5985
 1131UDC     C112431   6.014   7.375   5.550 -0.1028  0.2914 -0.1262
 1131UDC     C212432   6.094   7.369   5.686  0.2214  0.8297  0.4366
 1131UDC     C312433   6.228   7.430   5.657  0.4633  0.0351  0.1769
 1131UDC     C412434   6.292   7.511   5.768  0.5785 -0.8699 -0.1258
 1131UDC     C512435   6.200   7.627   5.813 -0.1746  1.0040 -0.3973
 1131UDC     C612436   6.265   7.707   5.928  0.4523  0.3540  0.1119
 1131UDC     C712437   6.414   7.683   5.939 -0.2118 -0.6952 -0.2004
 1131UDC     C812438   6.511   7.811   5.948  0.4395  1.3416 -0.1938
 1131UDC     C912439   6.653   7.761   5.979  0.0778  0.2115  0.1405
 1131UDC    C1012440   6.685   7.680   6.103 -0.0110 -0.2296  0.7002
 1131UDC    C1112441   6.839   7.676   6.100 -0.8885 -0.4470  0.7021
 1132UDC     C112442  10.107  14.860   4.418 -0.4293 -0.1782  0.2776
 1132UDC     C212443  10.058  14.744   4.502  0.6869  0.4419  0.8345
 1132UDC     C312444  10.125  14.712   4.639  0.2829  0.3080  0.4938
 1132UDC     C412445  10.081  14.588   4.722 -0.6163 -0.5814  0.4054
 1132UDC     C512446  10.071  14.478   4.614  0.4331 -0.5932  0.0163
 1132UDC     C612447  10.079  14.336   4.665  0.1319  0.0739 -0.7506
 1132UDC     C712448  10.045  14.222   4.559  0.2315 -0.1754 -0.2035
 1132UDC     C812449  10.064  14.084   4.619  0.8039 -0.5403  0.1474
 1132UDC     C912450  10.212  14.052   4.606 -0.0731  0.3675  0.2283
 1132UDC    C1012451  10.287  13.948   4.689 -0.7562 -0.3774  0.0282
 1132UDC    C1112452  10.415  13.884   4.628  0.3296  0.0091 -0.1834
 1133UDC     C112453  14.832   2.713  14.739  1.0033  0.8720 -0.0375
 1133UDC     C212454  14.728   2.606  14.687  0.3213 -0.3820  1.1579
 1133UDC     C312455  14.653   2.523  14.784 -0.7653 -0.0203 -0.3579
 1133UDC     C412456  14.554   2.434  14.719 -1.0137  0.5022 -0.4078
 1133UDC     C512457  14.630   2.308  14.667 -0.1322  0.5157 -0.1926
 1133UDC     C612458  14.757   2.260  14.743  0.6318  0.7109  0.5117
 1133UDC     C712459  14.725   2.139  14.833  0.3541  0.0743  0.3392
 1133UDC     C812460  14.726   1.998  14.776  0.0445 -0.3121  0.2417
 1133UDC     C912461  14.860   1.945  14.715  0.7748  0.6960 -0.7773
 1133UDC    C1012462  14.846   1.807  14.646 -0.3793  0.7905  0.1487
 1133UDC    C1112463  14.984   1.761  14.598 -0.2320  0.7190  0.5342
 1134UDC     C112464   8.379  12.093  12.026  0.0805  0.2586 -0.1503
 1134UDC     C212465   8.434  11.985  12.114 -0.2522 -0.2049  0.2716
 1134UDC     C312466   8.409  11.995  12.265 -0.9083  0.7091 -1.1671
 1134UDC     C412467   8.472  11.896  12.366  0.7499 -1.4289  0.3966
 1134UDC     C512468   8.424  11.899  12.515  1.0274  0.1552  0.2381
 1134UDC     C612469   8.462  11.776  12.594 -0.1257  0.6355 -0.2654
 1134UDC     C712470   8.378  11.643  12.584 -1.4399 -0.4996 -0.9394
 1134UDC     C812471   8.423  11.526  12.677 -0.1203 -1.7878 -0.6773
 1134UDC     C912472   8.328  11.403  12.657 -0.3160 -0.1330 -0.6910
 1134UDC    C1012473   8.343  11.294  12.760  1.3047  0.8615 -0.3475
 1134UDC    C1112474   8.385  11.336  12.909  0.0751 -0.1649 -0.0340
 1135UDC     C112475   0.723  17.637  17.628  0.0673  0.8948  0.0417
 1135UDC     C212476   0.693  17.503  17.562  0.3913  0.1076 -0.9399
 1135UDC     C312477   0.783  17.381  17.589 -0.4262  0.1447  0.7457
 1135UDC     C412478   0.731  17.327  17.724 -0.1700 -0.0436 -0.0455
 1135UDC     C512479   0.758  17.182  17.771 -0.5272 -0.7765 -0.7736
 1135UDC     C612480   0.910  17.146  17.755  0.3133 -0.7178 -0.3659
 1135UDC     C712481   0.928  17.005  17.816  0.3924 -0.8180 -0.2530
 1135UDC     C812482   1.065  16.960  17.826 -0.2550  0.0431  0.5491
 1135UDC     C912483   1.145  17.065  17.901  0.0526 -0.8764 -0.5538
 1135UDC    C1012484   1.128  17.016  18.046  0.1411  0.8409 -1.3116
 1135UDC    C1112485   1.167  17.116  18.157  0.8935 -0.3340  0.4686
 1136UDC     C112486  13.373  19.366   4.928  0.7635 -0.0773 -0.2306
 1136UDC     C212487  13.480  19.257   4.936 -0.5311 -0.4107 -0.1956
 1136UDC     C312488  13.612  19.334   4.945  0.2793 -0.2327 -0.9320
 1136UDC     C412489  13.716  19.221   4.968 -0.4369 -0.6012  0.4386
 1136UDC     C512490  13.859  19.251   4.924 -0.7506  0.2129  0.4547
 1136UDC     C612491  13.872  19.256   4.772 -0.2142 -0.3838  0.0781
 1136UDC     C712492  14.026  19.270   4.757 -0.8922  0.8684 -0.1624
 1136UDC     C812493  14.086  19.277   4.603  0.7326 -1.8121  0.2560
 1136UDC     C912494  14.054  19.162   4.510 -0.2091  1.0854 -0.9232
 1136UDC    C1012495  14.128  19.143   4.379 -0.0193 -0.0212 -0.2709
 1136UDC    C1112496  14.098  19.013   4.306 -0.0701  0.2605  0.0183
 1137UDC     C112497  10.020   8.862  17.851 -0.3868  0.4016 -0.8685
 1137UDC     C212498  10.089   8.745  17.922 -0.7327 -0.2523  0.1036
 1137UDC     C312499  10.053   8.711  18.067  0.7205  0.9264  0.5451
 1137UDC     C412500  10.113   8.586  18.131 -0.1944 -0.6532  0.3567
 1137UDC     C512501  10.060   8.554  18.275 -0.3024  0.0540 -0.4566
 1137UDC     C612502  10.156   8.467  18.359 -0.2714  0.1113  1.0171
 1137UDC     C712503  10.298   8.526  18.391 -0.3864 -0.4992  0.9414
 1137UDC     C812504  10.400   8.412  18.434  0.7370 -0.2167  0.2495
 1137UDC     C912505  10.387   8.367  18.581  0.7615 -0.2184 -0.2528
 1137UDC    C1012506  10.495   8.263  18.616  0.4138 -0.2812 -1.5090
 1137UDC    C1112507  10.456   8.158  18.717  1.4963 -0.6855  0.5804
 1138UDC     C112508   4.983  15.848  17.061 -0.2578 -0.7720  0.4074
 1138UDC     C212509   4.873  15.948  17.039  0.1254 -0.3337 -0.5210
 1138UDC     C312510   4.930  16.059  16.949  0.1737  0.0392  0.7590
 1138UDC     C412511   4.996  16.014  16.813  0.1017 -0.3772  0.1366
 1138UDC     C512512   4.890  15.944  16.719  0.9266 -1.6541  0.8050
 1138UDC     C612513   4.966  15.868  16.608  1.0648  0.0127 -0.3770
 1138UDC     C712514   4.866  15.824  16.498 -0.1975  0.2648 -1.3183
 1138UDC     C812515   4.904  15.725  16.387  0.2682  0.1861 -0.5220
 1138UDC     C912516   4.911  15.580  16.429 -0.2944  0.5019 -0.6481
 1138UDC    C1012517   5.019  15.515  16.338  0.9592 -0.3093 -1.1583
 1138UDC    C1112518   5.063  15.384  16.409  0.1598 -0.8586  0.4450
 1139UDC     C112519   4.267  14.657   8.887  0.7329 -0.3124 -0.2803
 1139UDC     C212520   4.168  14.730   8.790 -0.9732  0.0185  0.2354
 1139UDC     C312521   4.229  14.767   8.655 -0.2696 -0.1756 -0.7961
 1139UDC     C412522   4.137  14.870   8.589 -0.2557 -0.2877  0.4406
 1139UDC     C512523   4.086  15.009   8.641 -0.5163  0.3994  0.3393
 1139UDC     C612524   4.049  15.107   8.527  0.6523 -0.1063  0.2111
 1139UDC     C712525   3.903  15.089   8.464  0.5328  0.1465  0.1482
 1139UDC     C812526   3.786  15.054   8.572 -0.2497 -1.1858 -0.6102
 1139UDC     C912527   3.653  15.025   8.504 -1.0402  0.3059  0.4630
 1139UDC    C1012528   3.573  14.964   8.628 -1.0517  1.5924  0.8744
 1139UDC    C1112529   3.580  15.065   8.735  0.3018  0.6001  0.3572
 1140UDC     C112530  17.400  13.731  18.080  0.5437  0.0481  0.7545
 1140UDC     C212531  17.416  13.624  17.971  0.2751  0.8025  0.1197
 1140UDC     C312532  17.569  13.624  17.943 -1.3070  0.8327  0.8873
 1140UDC     C412533  17.666  13.560  18.048  0.1168  0.1115  0.5189
 1140UDC     C512534  17.635  13.416  18.096  0.0229 -1.1304  0.3094
 1140UDC     C612535  17.746  13.357  18.191  0.2200 -0.1939  0.8945
 1140UDC     C712536  17.710  13.372  18.342 -0.1348 -0.3062  0.1707
 1140UDC     C812537  17.576  13.313  18.374 -1.0471  0.0273  0.2270
 1140UDC     C912538  17.605  13.167  18.425  0.1422 -0.2213  0.6472
 1140UDC    C1012539  17.490  13.105  18.505  1.1750  0.3593 -0.7673
 1140UDC    C1112540  17.507  12.954  18.520 -0.2021 -0.1658  0.3839
 1141UDC     C112541  13.139   8.622   5.908  0.5158  0.1971 -0.0417
 1141UDC     C212542  13.083   8.485   5.961 -0.0749 -0.6325  0.2585
 1141UDC     C312543  13.130   8.370   5.880  0.3134 -0.0932  0.1100
 1141UDC     C412544  13.281   8.370   5.862 -0.1551  0.0692  0.4305
 1141UDC     C512545  13.315   8.283   5.744  0.0401  0.4467 -0.3144
 1141UDC     C612546  13.263   8.147   5.764 -0.9769  0.9358  0.6279
 1141UDC     C712547  13.253   8.063   5.635  0.3825  0.2867  0.7797
 1141UDC     C812548  13.383   8.068   5.551 -0.9396 -1.3543 -0.4513
 1141UDC     C912549  13.373   7.997   5.416  1.0305  1.1986  0.9050
 1141UDC    C1012550  13.502   7.921   5.379 -0.8186 -0.2307  0.0169
 1141UDC    C1112551  13.620   8.024   5.356 -1.1372 -0.7392  1.3673
 1142UDC     C112552  14.918   8.598   0.163  0.5207  0.6274 -0.1280
 1142UDC     C212553  14.816   8.707   0.126 -0.2446  1.3634 -0.8496
 1142UDC     C312554  14.747   8.762   0.254 -0.6844  0.1275 -0.5373
 1142UDC     C412555  14.695   8.900   0.260  1.2238 -0.2088 -1.8970
 1142UDC     C512556  14.609   8.942   0.379  0.4917  0.9094  0.3674
 1142UDC     C612557  14.475   8.859   0.385  0.7240  0.0737 -0.2126
 1142UDC     C712558  14.356   8.895   0.479  0.2108  0.3985  0.0447
 1142UDC     C812559  14.246   8.779   0.485 -0.5192  0.3885  1.3446
 1142UDC     C912560  14.120   8.865   0.446  0.1822 -0.6229 -0.3071
 1142UDC    C1012561  13.986   8.785   0.463 -0.2400 -0.4813  1.0376
 1142UDC    C1112562  13.970   8.692   0.584  0.7682 -0.2279  0.4975
 1143UDC     C112563  12.719   7.366  15.783 -0.6054  0.6168 -0.8032
 1143UDC     C212564  12.591   7.382  15.703 -0.3483 -0.3375 -0.3140
 1143UDC     C312565  12.614   7.397  15.550 -1.0978 -0.1189  1.3033
 1143UDC     C412566  12.669   7.538  15.531  0.7075 -0.6721  0.5782
 1143UDC     C512567  12.596   7.662  15.591 -0.8676 -0.4556  0.2440
 1143UDC     C612568  12.466   7.694  15.505 -0.4071 -0.4027 -0.3053
 1143UDC     C712569  12.493   7.726  15.354 -0.3567 -0.2955 -0.3786
 1143UDC     C812570  12.401   7.671  15.245 -0.1082 -0.6547  0.8791
 1143UDC     C912571  12.461   7.706  15.110 -0.2572  0.1094  1.3000
 1143UDC    C1012572  12.360   7.681  14.993 -0.0307  0.6547 -0.1377
 1143UDC    C1112573  12.319   7.535  14.941 -0.1359 -0.9530 -0.2652
 1144UDC     C112574   0.145   2.232   4.707  0.5699  1.2868 -1.6136
 1144UDC     C212575   0.003   2.294   4.718  0.4405 -0.5241 -0.1588
 1144UDC     C312576   0.014   2.423   4.647  0.0244 -1.4148  0.2687
 1144UDC     C412577  -0.127   2.493   4.661  0.3195  0.3645  0.6971
 1144UDC     C512578  -0.176   2.546   4.801 -1.0371  0.3303 -0.1536
 1144UDC     C612579  -0.290   2.641   4.808 -0.0676 -0.5963  0.3150
 1144UDC     C712580  -0.307   2.724   4.935  0.2974  0.0925 -0.5198
 1144UDC     C812581  -0.388   2.857   4.941 -1.0924  0.0973 -0.0776
 1144UDC     C912582  -0.381   2.952   4.818  0.4760 -0.5553  0.1595
 1144UDC    C1012583  -0.448   3.100   4.834 -0.2669  1.0763  0.1688
 1144UDC    C1112584  -0.480   3.188   4.717  0.8565  1.0575  0.8121
 1145UDC     C112585  19.801  17.206   0.985  0.4311 -0.5416  0.0269
 1145UDC     C212586  19.809  17.296   0.863  0.2076  0.4301  0.2538
 1145UDC     C312587  19.684  17.278   0.771  0.2388  0.1357 -0.5144
 1145UDC     C412588  19.549  17.294   0.838 -0.4750 -0.1857 -0.3469
 1145UDC     C512589  19.420  17.281   0.763  0.1682 -0.0086 -1.4117
 1145UDC     C612590  19.427  17.171   0.658 -0.6840  0.2738  0.4541
 1145UDC     C712591  19.285  17.107   0.650 -0.0610 -0.3649  0.3863
 1145UDC     C812592  19.289  16.960   0.703  0.4494  0.1141  0.2557
 1145UDC     C912593  19.153  16.892   0.727 -0.4954  2.2383  0.9187
 1145UDC    C1012594  19.135  16.787   0.843 -0.7622 -0.7521 -0.3047
 1145UDC    C1112595  19.220  16.656   0.851  0.2192  0.0900 -0.9920
 1146UDC     C112596  11.314  10.395  13.861 -0.4164  0.0002  0.1905
 1146UDC     C212597  11.218  10.278  13.858 -0.6785  0.1695 -0.5796
 1146UDC     C312598  11.064  10.322  13.862 -0.1614  0.0414 -0.3430
 1146UDC     C412599  10.963  10.212  13.875 -0.3054 -1.5166 -0.4671
 1146UDC     C512600  10.824  10.270  13.908  0.6861 -0.6222  0.1604
 1146UDC     C612601  10.820  10.324  14.056  0.2853 -0.0804 -1.7251
 1146UDC     C712602  10.694  10.413  14.080 -1.7368  1.6104  0.5233
 1146UDC     C812603  10.701  10.560  14.117  0.8110  0.3276  0.0756
 1146UDC     C912604  10.577  10.623  14.056 -0.1620  0.3903  0.2098
 1146UDC    C1012605  10.563  10.773  14.072 -0.3449 -0.0904 -0.3002
 1146UDC    C1112606  10.451  10.841  13.997  0.3801  0.8486  0.2367
 1147UDC     C112607   1.727  13.332  10.539  0.5162  0.2444 -0.5800
 1147UDC     C212608   1.722  13.438  10.650  1.4980 -0.0741  0.2145
 1147UDC     C312609   1.841  13.529  10.642  0.7804 -0.4082 -0.1339
 1147UDC     C412610   1.878  13.611  10.765  0.9430  0.4633  1.1359
 1147UDC     C512611   2.005  13.685  10.728  1.3198  0.2558 -0.6308
 1147UDC     C612612   1.965  13.830  10.698 -0.7016 -0.4571  0.0717
 1147UDC     C712613   1.882  13.910  10.799  0.8213 -0.2398  1.1082
 1147UDC     C812614   1.963  13.939  10.923  0.3256 -0.0779  0.2114
 1147UDC     C912615   1.878  14.018  11.015  0.2349  0.8586 -0.7514
 1147UDC    C1012616   1.746  13.967  11.084  0.4937  0.6977 -0.6826
 1147UDC    C1112617   1.698  14.052  11.196 -0.3938  0.0681  0.1679
 1148UDC     C112618  16.759  13.978   3.887  0.8500 -1.4747  0.1526
 1148UDC     C212619  16.845  14.006   3.755  0.2315  0.5817 -0.1098
 1148UDC     C312620  16.940  13.897   3.725 -0.2649  0.1255  0.2578
 1148UDC     C412621  17.044  13.870   3.838  0.1336  0.4092 -0.4330
 1148UDC     C512622  17.150  13.985   3.844 -0.1616  0.0705 -0.1631
 1148UDC     C612623  17.260  13.945   3.947 -0.5828  0.0081  0.2440
 1148UDC     C712624  17.257  14.014   4.086  0.2034  1.0535  0.1083
 1148UDC     C812625  17.373  13.969   4.176  0.3987 -0.0527  0.5610
 1148UDC     C912626  17.511  14.008   4.113  0.2673 -0.2743 -1.1609
 1148UDC    C1012627  17.620  13.954   4.206  0.4981 -0.0212  1.1604
 1148UDC    C1112628  17.592  13.860   4.319 -0.3304 -0.4379 -0.6372
 1149UDC     C112629  12.246   8.484   5.306  0.2289 -1.0153 -1.0513
 1149UDC     C212630  12.316   8.356   5.345 -0.5080 -0.5883 -0.8678
 1149UDC     C312631  12.399   8.374   5.475  0.4398 -0.4100 -0.8079
 1149UDC     C412632  12.332   8.488   5.558 -0.3171 -1.1579 -0.0540
 1149UDC     C512633  12.409   8.552   5.682 -0.4052  0.7068  0.4043
 1149UDC     C612634  12.387   8.474   5.811 -0.0564 -0.5697  0.6580
 1149UDC     C712635  12.459   8.525   5.939  0.6780 -0.4257 -0.0082
 1149UDC     C812636  12.361   8.536   6.057 -0.6623 -0.0902  0.0403
 1149UDC     C912637  12.422   8.598   6.189  0.1297  0.1113  0.2193
 1149UDC    C1012638  12.410   8.745   6.208 -0.5053  0.6874 -0.1735
 1149UDC    C1112639  12.451   8.790   6.351  0.2449  1.5107  0.7177
 1150UDC     C112640  10.032   5.411   0.649  0.0144 -0.5653 -0.1114
 1150UDC     C212641  10.057   5.441   0.497  0.6328 -1.0655  0.7501
 1150UDC     C312642  10.176   5.543   0.466 -0.1661  0.5073 -0.0408
 1150UDC     C412643  10.280   5.483   0.559  0.4206  0.3949  0.1510
 1150UDC     C512644  10.401   5.588   0.554  0.9729 -0.0245 -0.3967
 1150UDC     C612645  10.405   5.646   0.411 -0.1077  0.7410 -0.3475
 1150UDC     C712646  10.547   5.666   0.356 -0.7214  0.1065 -0.2338
 1150UDC     C812647  10.533   5.699   0.210  0.1375  0.1991  0.5404
 1150UDC     C912648  10.641   5.808   0.185  0.4237 -0.1584 -0.0006
 1150UDC    C1012649  10.602   5.871   0.053  0.8057  0.0501  0.3538
 1150UDC    C1112650  10.539   5.998   0.101 -0.7187 -0.0203 -0.1705
 1151UDC     C112651  10.276  14.038  13.499  0.6469  0.3371  0.2083
 1151UDC     C212652  10.225  14.182  13.472  0.1981  0.2094  0.2529
 1151UDC     C312653  10.253  14.279  13.588  0.8008  0.2953  0.7021
 1151UDC     C412654  10.401  14.324  13.576  0.1540  0.5137  0.5504
 1151UDC     C512655  10.445  14.369  13.432  0.4912  0.2830 -0.8343
 1151UDC     C612656  10.593  14.401  13.420  0.3709 -0.0305  0.1958
 1151UDC     C712657  10.680  14.293  13.478 -0.0938 -0.3230  0.4472
 1151UDC     C812658  10.833  14.315  13.464  0.8297 -0.2083  1.4823
 1151UDC     C912659  10.924  14.205  13.528 -0.6314  0.1710 -0.4045
 1151UDC    C1012660  11.083  14.212  13.538 -0.0583  0.5565  1.0179
 1151UDC    C1112661  11.176  14.168  13.422  0.2015 -0.2870  0.3737
 1152UDC     C112662  15.847   2.237   4.935  0.1356 -0.6017  0.0234
 1152UDC     C212663  15.759   2.327   5.026 -0.3381  0.1531  0.5859
 1152UDC     C312664  15.755   2.479   4.988 -0.3191 -0.5712 -0.6910
 1152UDC     C412665  15.644   2.560   5.054 -0.7969  0.3713 -0.0114
 1152UDC     C512666  15.568   2.461   5.143  0.7270  0.1402  0.8537
 1152UDC     C612667  15.439   2.520   5.206  0.7534 -0.0832 -0.0183
 1152UDC     C712668  15.466   2.649   5.286 -0.6485  0.3008  0.3704
 1152UDC     C812669  15.331   2.677   5.361  0.4999 -0.2255  0.3288
 1152UDC     C912670  15.318   2.806   5.434 -0.2377  0.2219 -0.3210
 1152UDC    C1012671  15.427   2.831   5.540  0.0216  0.4937  0.3860
 1152UDC    C1112672  15.423   2.954   5.627 -0.3202 -0.4307 -0.2684
 1153UDC     C112673  15.191  13.431  18.447 -1.0107  0.2865 -0.2059
 1153UDC     C212674  15.102  13.508  18.349  0.3825 -1.0095 -0.8131
 1153UDC     C312675  15.142  13.478  18.202 -0.9161 -0.6085 -0.0484
 1153UDC     C412676  15.117  13.582  18.087  0.2488  0.0008  0.4655
 1153UDC     C512677  15.173  13.720  18.105  0.2485 -0.1285  0.7109
 1153UDC     C612678  15.113  13.797  17.983 -0.5197 -0.0933 -0.5393
 1153UDC     C712679  14.963  13.789  17.962  0.5123 -0.5561  0.2618
 1153UDC     C812680  14.871  13.884  18.044  0.4842 -0.3337 -0.0607
 1153UDC     C912681  14.723  13.870  17.998  0.2146 -0.1816  0.9021
 1153UDC    C1012682  14.610  13.948  18.076 -1.0822  0.7418 -0.4649
 1153UDC    C1112683  14.615  14.101  18.056  0.5604  0.3335  0.5213
 1154UDC     C112684   8.428   3.532   2.055  0.8323 -0.5241  0.2805
 1154UDC     C212685   8.314   3.462   2.130  0.5342  0.9930  0.2100
 1154UDC     C312686   8.178   3.539   2.107 -1.0230 -0.4221 -0.6723
 1154UDC     C412687   8.050   3.461   2.123  0.4537  0.4367  0.5446
 1154UDC     C512688   7.921   3.541   2.119  0.8726  0.0592 -0.1818
 1154UDC     C612689   7.798   3.477   2.057  0.0745 -0.2417  0.0295
 1154UDC     C712690   7.737   3.361   2.140 -0.0658  1.0001 -0.0665
 1154UDC     C812691   7.584   3.331   2.135  0.7866 -0.3923  0.0629
 1154UDC     C912692   7.524   3.337   1.992 -0.1101 -0.5925 -0.3101
 1154UDC    C1012693   7.375   3.298   1.999  0.4360 -0.0382  0.8642
 1154UDC    C1112694   7.321   3.253   2.132  0.0173 -0.1139  0.8067
 1155UDC     C112695  14.157   3.476   4.481  0.5620  0.3493 -0.4503
 1155UDC     C212696  14.078   3.616   4.507  0.3515  2.0493  0.2722
 1155UDC     C312697  13.937   3.615   4.577 -0.6743  0.0529 -0.2639
 1155UDC     C412698  13.886   3.741   4.635 -0.5705 -0.2548  0.0696
 1155UDC     C512699  13.882   3.865   4.540  0.5188  0.5573 -0.6796
 1155UDC     C612700  13.817   3.978   4.608  0.6391  0.6681  0.2080
 1155UDC     C712701  13.723   4.050   4.509 -0.3858  0.0177  0.4998
 1155UDC     C812702  13.575   4.084   4.549  0.0323  0.0000 -0.5012
 1155UDC     C912703  13.476   3.987   4.473 -0.7427 -0.6565 -0.2130
 1155UDC    C1012704  13.339   4.026   4.515 -0.2236  0.0062  0.2594
 1155UDC    C1112705  13.299   4.173   4.511 -0.7836  0.2729 -0.7094
 1156UDC     C112706  13.797   3.085   2.555 -0.3630 -0.3134 -0.0121
 1156UDC     C212707  13.908   2.977   2.545  0.7753 -0.4723 -0.7894
 1156UDC     C312708  14.026   2.988   2.641  0.0674  1.2586 -0.0892
 1156UDC     C412709  14.059   3.132   2.673  1.4026 -0.0379  0.2905
 1156UDC     C512710  14.153   3.159   2.797 -0.2033  0.9268  1.0367
 1156UDC     C612711  14.098   3.235   2.922 -0.3433  0.4678  1.0521
 1156UDC     C712712  14.067   3.158   3.051 -1.8013 -0.4546  0.1727
 1156UDC     C812713  14.095   3.235   3.179 -0.3464  0.3703  0.3971
 1156UDC     C912714  13.988   3.232   3.286 -0.1306  0.6833 -0.0456
 1156UDC    C1012715  13.935   3.106   3.354  0.2499 -0.6065  0.4571
 1156UDC    C1112716  13.866   2.999   3.270 -0.2613  0.9207 -0.0430
 1157UDC     C112717   9.648  19.754   7.805 -0.0485  0.3141 -1.2935
 1157UDC     C212718   9.769  19.692   7.739  0.7732  0.1494 -0.6814
 1157UDC     C312719   9.863  19.783   7.663 -0.1635  0.7029 -0.4059
 1157UDC     C412720   9.973  19.693   7.606  0.7254 -0.3006 -1.1762
 1157UDC     C512721  10.085  19.775   7.547  0.1985 -0.6069  0.8388
 1157UDC     C612722  10.224  19.706   7.537 -0.4014 -0.0797  1.1897
 1157UDC     C712723  10.301  19.804   7.453 -1.3135  0.0193 -0.1403
 1157UDC     C812724  10.298  19.935   7.531  0.3415 -0.9010  0.3004
 1157UDC     C912725  10.419  20.014   7.550 -1.9364  0.3268 -0.4257
 1157UDC    C1012726  10.509  20.025   7.429 -0.5761 -0.0657  0.4079
 1157UDC    C1112727  10.452  20.116   7.324  0.4888 -0.0279 -0.3318
 1158UDC     C112728  12.862   8.824   4.443 -0.0171  0.5168  1.5051
 1158UDC     C212729  12.766   8.714   4.474  0.5503 -0.1036  0.2796
 1158UDC     C312730  12.670   8.682   4.358  0.1777 -0.2979  0.5526
 1158UDC     C412731  12.654   8.795   4.260 -0.5639  0.0687  0.3606
 1158UDC     C512732  12.530   8.801   4.165 -0.1570  0.8077  0.2467
 1158UDC     C612733  12.517   8.708   4.038  0.1782 -0.5205 -0.8481
 1158UDC     C712734  12.424   8.791   3.941 -0.4785 -0.2870  0.2775
 1158UDC     C812735  12.414   8.723   3.805  1.1140 -0.4671  0.3047
 1158UDC     C912736  12.344   8.819   3.706 -0.8525 -0.2303 -0.7369
 1158UDC    C1012737  12.193   8.829   3.718  1.6281  0.4209  0.1163
 1158UDC    C1112738  12.117   8.899   3.602  0.1532 -0.9413 -0.7058
 1159UDC     C112739   1.250  18.697   4.619 -0.4458 -0.5745  0.2646
 1159UDC     C212740   1.150  18.776   4.525 -0.5044  0.2827 -1.3104
 1159UDC     C312741   1.007  18.804   4.575  0.7610 -0.5492 -0.0729
 1159UDC     C412742   0.929  18.885   4.472  0.6751  0.2212  0.5245
 1159UDC     C512743   0.796  18.931   4.525 -0.1658 -0.1422  0.5222
 1159UDC     C612744   0.688  18.826   4.520  0.3863 -0.1465 -0.6420
 1159UDC     C712745   0.542  18.872   4.528 -0.0090  0.1902 -0.5174
 1159UDC     C812746   0.437  18.778   4.590  0.4640  0.3466  0.4832
 1159UDC     C912747   0.316  18.861   4.615  0.5689 -0.1127 -1.0097
 1159UDC    C1012748   0.246  18.891   4.480  0.8399  0.7387 -0.0065
 1159UDC    C1112749   0.151  18.778   4.435 -0.8274  0.4339 -0.0169
 1160UDC     C112750   3.936   9.371  15.260  0.1370  0.0419 -0.6711
 1160UDC     C212751   4.038   9.395  15.148 -0.5276 -0.1481 -0.7735
 1160UDC     C312752   4.176   9.350  15.212 -0.0058  0.3571  0.8657
 1160UDC     C412753   4.214   9.445  15.325 -0.1667 -0.5558  0.0376
 1160UDC     C512754   4.334   9.399  15.400 -1.0289 -0.1958 -0.5540
 1160UDC     C612755   4.281   9.286  15.499  0.8031 -0.0890 -0.0940
 1160UDC     C712756   4.386   9.193  15.545  0.0796 -0.9741  0.8819
 1160UDC     C812757   4.343   9.053  15.581 -0.0667  0.5320  0.8276
 1160UDC     C912758   4.454   8.952  15.588  0.8679  0.1988 -0.2553
 1160UDC    C1012759   4.417   8.805  15.615 -0.9048 -0.4147  0.2241
 1160UDC    C1112760   4.398   8.784  15.765 -0.5865 -0.4923 -0.5451
 1161UDC     C112761   3.621  19.511  19.981 -1.3451 -0.5990  0.2526
 1161UDC     C212762   3.746  19.564  20.056 -0.5069  0.7661  0.0462
 1161UDC     C312763   3.857  19.595  19.962  0.3096 -0.3660 -0.8831
 1161UDC     C412764   3.930  19.721  20.008 -0.2021  0.1230 -0.0590
 1161UDC     C512765   4.012  19.809  19.904 -0.3082  0.5164  0.5348
 1161UDC     C612766   3.936  19.833  19.775  0.1944  0.3567 -0.3330
 1161UDC     C712767   3.822  19.925  19.790  0.4251 -0.2483  0.0593
 1161UDC     C812768   3.694  19.864  19.849  0.5970 -0.2248  0.6746
 1161UDC     C912769   3.592  19.978  19.832 -0.0933 -0.5658 -0.4475
 1161UDC    C1012770   3.560  20.020  19.686 -0.6729  0.7374  0.3041
 1161UDC    C1112771   3.487  20.156  19.669 -0.4921 -0.3860 -0.2750
 1162UDC     C112772  15.268  12.055   3.926  0.8064  0.3785 -0.1118
 1162UDC     C212773  15.408  12.128   3.931 -0.6947  0.1630  0.5384
 1162UDC     C312774  15.444  12.204   3.798 -0.7706 -0.2083 -0.2783
 1162UDC     C412775  15.588  12.266   3.775  1.0606 -0.1619 -0.2254
 1162UDC     C512776  15.603  12.330   3.631  0.7727  0.3477 -0.7512
 1162UDC     C612777  15.616  12.480   3.622 -0.2177 -0.4361 -0.4177
 1162UDC     C712778  15.690  12.517   3.756  0.4440  0.5193 -0.8652
 1162UDC     C812779  15.650  12.658   3.794  0.0100  0.0374 -0.5270
 1162UDC     C912780  15.713  12.703   3.929  0.6476  0.7838  0.7156
 1162UDC    C1012781  15.660  12.839   3.977  0.8354 -0.3831  0.5406
 1162UDC    C1112782  15.694  12.888   4.124 -0.4095 -0.7617  1.2562
 1163UDC     C112783  17.090   3.265   7.150 -0.1290 -0.6731 -0.7849
 1163UDC     C212784  17.026   3.329   7.276 -0.0868  0.3599 -1.3623
 1163UDC     C312785  17.104   3.300   7.411 -0.3349 -0.2105  0.5028
 1163UDC     C412786  17.196   3.177   7.405 -1.0752 -0.3731 -0.5413
 1163UDC     C512787  17.283   3.163   7.530  0.2443 -0.3877  0.6559
 1163UDC     C612788  17.413   3.081   7.514 -0.2608  0.4814  0.2035
 1163UDC     C712789  17.462   3.053   7.655  0.7970 -0.0146 -0.0073
 1163UDC     C812790  17.584   2.961   7.647 -1.0728  0.3209  0.9475
 1163UDC     C912791  17.548   2.818   7.604 -0.1802 -0.8402 -0.5812
 1163UDC    C1012792  17.646   2.721   7.677 -0.0914 -0.4182  0.9978
 1163UDC    C1112793  17.577   2.580   7.703 -0.4505 -0.2540  0.3492
 1164UDC     C112794  14.352  16.950  13.361  0.5328 -0.1488  0.4810
 1164UDC     C212795  14.483  16.878  13.351 -0.2168 -0.9281 -2.0024
 1164UDC     C312796  14.479  16.729  13.309  0.3094  0.1410 -1.3727
 1164UDC     C412797  14.570  16.638  13.386 -0.8188 -0.1067 -0.8552
 1164UDC     C512798  14.583  16.505  13.315 -0.2251  0.0274 -1.1990
 1164UDC     C612799  14.677  16.401  13.382 -0.7826 -0.7686 -1.2825
 1164UDC     C712800  14.711  16.293  13.278  0.2347 -0.1770  1.0745
 1164UDC     C812801  14.855  16.263  13.261 -1.2278  0.8304  0.7519
 1164UDC     C912802  14.915  16.361  13.161  0.1788 -0.3334  0.3858
 1164UDC    C1012803  15.060  16.347  13.142 -0.4354 -1.0044 -0.0323
 1164UDC    C1112804  15.145  16.357  13.273  0.3998  0.1417  0.1906
 1165UDC     C112805   6.174  15.001  14.502  0.1781 -0.3742 -0.6426
 1165UDC     C212806   6.044  14.907  14.471 -0.5555 -0.3842  0.3022
 1165UDC     C312807   5.904  14.965  14.499  0.6482 -0.2066 -0.1607
 1165UDC     C412808   5.803  14.917  14.394 -1.2328  0.2454 -0.1063
 1165UDC     C512809   5.662  14.974  14.410 -0.2963 -0.1460  0.0626
 1165UDC     C612810   5.646  15.109  14.331 -0.8417 -0.3918  0.2435
 1165UDC     C712811   5.601  15.126  14.191  0.7248  0.5501 -0.7081
 1165UDC     C812812   5.472  15.041  14.153  1.1264 -0.7696  0.0799
 1165UDC     C912813   5.445  15.035  14.008 -0.1188 -0.1770  1.2701
 1165UDC    C1012814   5.571  14.963  13.952  0.4422 -0.4382  0.1532
 1165UDC    C1112815   5.626  15.042  13.830  0.0185 -0.2680  0.1463
 1166UDC     C112816   6.097   8.477   0.145 -0.4348 -0.5186  0.8872
 1166UDC     C212817   6.044   8.331   0.116 -1.3264 -0.0106 -0.2320
 1166UDC     C312818   6.081   8.271  -0.024  0.0482  0.7602 -0.0759
 1166UDC     C412819   6.196   8.171  -0.017 -0.7794 -0.5738 -0.5765
 1166UDC     C512820   6.195   8.077   0.105  0.0172  0.1460  0.1202
 1166UDC     C612821   6.331   8.022   0.150  0.4064 -1.4001  0.8466
 1166UDC     C712822   6.381   8.113   0.258 -0.3802  1.1960  0.0639
 1166UDC     C812823   6.307   8.067   0.392  0.1305  0.2895 -0.4164
 1166UDC     C912824   6.322   8.154   0.521  1.4252  0.2934  0.7701
 1166UDC    C1012825   6.227   8.113   0.632 -0.0790  0.4179  0.0775
 1166UDC    C1112826   6.148   8.238   0.681 -0.1574  0.2468 -0.2020
 1167UDC     C112827  14.319  11.477  14.969 -0.0925  0.5240 -0.5677
 1167UDC     C212828  14.333  11.517  15.114  0.2519 -0.0626  0.2581
 1167UDC     C312829  14.267  11.640  15.158  0.6694 -0.4613  0.3328
 1167UDC     C412830  14.316  11.680  15.301  0.2106 -0.2367  0.3008
 1167UDC     C512831  14.257  11.820  15.321  0.1707 -0.1176 -0.2630
 1167UDC     C612832  14.290  11.864  15.464 -1.2073 -0.2048  0.8676
 1167UDC     C712833  14.208  11.801  15.571  0.4945 -0.3527  0.0363
 1167UDC     C812834  14.271  11.743  15.691 -0.3104  0.2288 -0.3021
 1167UDC     C912835  14.253  11.831  15.816  0.3440 -0.3428  0.3035
 1167UDC    C1012836  14.280  11.972  15.780 -0.1196 -0.1071 -0.9745
 1167UDC    C1112837  14.371  12.066  15.867 -0.1966  0.0846 -0.1204
 1168UDC     C112838  16.243  15.266   7.435  0.0560  0.4303  0.0464
 1168UDC     C212839  16.337  15.179   7.518 -0.0724  0.1693  0.2970
 1168UDC     C312840  16.395  15.226   7.651 -1.3156 -1.2437 -0.2725
 1168UDC     C412841  16.469  15.127   7.745  0.2603  0.6255 -0.3614
 1168UDC     C512842  16.484  15.132   7.893 -0.5970 -0.2816  0.2686
 1168UDC     C612843  16.592  15.229   7.925 -0.3804 -0.7961  0.0692
 1168UDC     C712844  16.639  15.190   8.071  0.0066  1.8552  0.7233
 1168UDC     C812845  16.520  15.214   8.162  0.1021 -0.8517 -0.1870
 1168UDC     C912846  16.543  15.182   8.313 -0.6396 -1.1474  0.4099
 1168UDC    C1012847  16.665  15.262   8.362 -0.3322  0.5513 -0.4041
 1168UDC    C1112848  16.674  15.257   8.514  0.5343  0.1133 -0.4111
 1169UDC     C112849   2.953   0.007  16.762 -0.2061 -0.5745  0.5797
 1169UDC     C212850   2.952  -0.014  16.611  0.5633 -0.5494 -0.4324
 1169UDC     C312851   3.078  -0.091  16.577 -1.5152 -0.4184 -0.9578
 1169UDC     C412852   3.139  -0.074  16.442  0.2131  0.8937 -0.7019
 1169UDC     C512853   3.066  -0.149  16.339 -0.9757 -1.3901  0.9125
 1169UDC     C612854   3.163  -0.144  16.215  0.5138  1.1774 -0.8312
 1169UDC     C712855   3.120  -0.236  16.102 -0.2338  0.3412 -0.5228
 1169UDC     C812856   2.990  -0.177  16.048 -0.2705  0.2203 -1.4585
 1169UDC     C912857   2.903  -0.270  15.965 -0.7026  0.3867  0.3258
 1169UDC    C1012858   2.894  -0.219  15.821  1.4599 -0.3410  0.0744
 1169UDC    C1112859   2.824  -0.079  15.786 -0.1057  0.2348  0.3847
 1170UDC     C112860  11.519  19.346   3.899 -0.1285  0.4500 -0.7802
 1170UDC     C212861  11.532  19.265   4.036 -0.6361 -1.5593  0.2819
 1170UDC     C312862  11.626  19.143   4.013 -0.7750 -0.4551  0.0745
 1170UDC     C412863  11.612  19.037   4.122  0.4698  0.5944 -0.9837
 1170UDC     C512864  11.740  19.005   4.202  0.0465 -0.2204 -0.6768
 1170UDC     C612865  11.708  18.918   4.332 -0.4695  0.3374  0.4088
 1170UDC     C712866  11.627  18.974   4.450 -0.7652  0.7173  0.3675
 1170UDC     C812867  11.659  19.124   4.485  0.2522 -0.4723  0.7612
 1170UDC     C912868  11.573  19.156   4.608  0.2757 -0.9630  0.3628
 1170UDC    C1012869  11.636  19.115   4.740  0.4644  0.1426 -0.4376
 1170UDC    C1112870  11.578  19.148   4.874  0.5442  0.6368  0.7438
 1171UDC     C112871  13.886   7.710   2.590  0.1400  0.4218 -0.8809
 1171UDC     C212872  13.927   7.583   2.650 -0.6367 -0.1983  0.1049
 1171UDC     C312873  13.806   7.495   2.673  1.1686  0.0364 -0.7678
 1171UDC     C412874  13.838   7.394   2.789  1.1990  0.4599 -0.6227
 1171UDC     C512875  13.725   7.288   2.807  0.2349  1.1286 -0.0902
 1171UDC     C612876  13.750   7.191   2.929  0.5484 -0.7769 -0.2903
 1171UDC     C712877  13.614   7.117   2.940 -0.4997  1.2852  0.5598
 1171UDC     C812878  13.589   7.046   3.071 -0.1881 -0.8509 -0.5237
 1171UDC     C912879  13.497   6.929   3.049  0.0446  0.0666  0.2254
 1171UDC    C1012880  13.482   6.853   3.181  0.8588 -0.5399  0.4880
 1171UDC    C1112881  13.356   6.916   3.251 -0.3714 -0.3256  0.4229
 1172UDC     C112882   4.708  14.510   8.857 -0.1374 -0.1194  0.2133
 1172UDC     C212883   4.764  14.387   8.782 -0.5164  0.8343 -1.1138
 1172UDC     C312884   4.892  14.425   8.719 -0.6476  0.0059 -0.1418
 1172UDC     C412885   4.956  14.539   8.799  0.5882  0.0638 -0.0221
 1172UDC     C512886   5.011  14.648   8.710  0.4844 -0.4267 -0.2004
 1172UDC     C612887   5.158  14.651   8.665  1.1215 -0.0432  0.5144
 1172UDC     C712888   5.204  14.756   8.564 -0.2155 -0.1141 -0.6695
 1172UDC     C812889   5.358  14.769   8.564 -0.5398  0.0552  1.2081
 1172UDC     C912890   5.401  14.893   8.485 -0.9843  0.7704  0.0073
 1172UDC    C1012891   5.376  14.882   8.335 -1.0220  0.4465 -0.0081
 1172UDC    C1112892   5.411  15.018   8.267 -0.4688  0.3390  0.2361
 1173UDC     C112893  11.394  15.431   1.727  0.0903 -0.4303 -0.7024
 1173UDC     C212894  11.271  15.492   1.657 -0.4828 -0.0504 -0.2917
 1173UDC     C312895  11.238  15.415   1.532 -0.5825 -0.3610  0.0846
 1173UDC     C412896  11.163  15.482   1.416  0.2297  0.6301 -1.3622
 1173UDC     C512897  11.264  15.490   1.302  0.0123 -0.8931 -0.2057
 1173UDC     C612898  11.214  15.547   1.168  0.9007 -0.2987  0.6491
 1173UDC     C712899  11.147  15.687   1.184  0.5010  0.0290  0.1918
 1173UDC     C812900  11.019  15.690   1.100  0.5978  1.1462  0.1293
 1173UDC     C912901  10.938  15.814   1.088 -0.2669 -0.9264  0.5074
 1173UDC    C1012902  11.017  15.946   1.044 -1.0874  0.0066 -0.2574
 1173UDC    C1112903  10.917  16.064   1.016  0.8046 -0.2059  0.8448
 1174UDC     C112904  15.520   3.911  12.382  0.0019 -0.2816  0.0716
 1174UDC     C212905  15.389   3.954  12.317  0.4630  0.1086  1.5215
 1174UDC     C312906  15.254   3.976  12.393 -0.6610 -0.1764  0.4727
 1174UDC     C412907  15.128   3.988  12.301 -0.6720  0.8200  0.8437
 1174UDC     C512908  15.109   3.854  12.225 -0.7585 -0.4702  0.1175
 1174UDC     C612909  14.970   3.850  12.155  0.0295 -0.0887 -0.2059
 1174UDC     C712910  14.958   3.715  12.070  0.2286 -0.4053 -0.1846
 1174UDC     C812911  14.939   3.580  12.136  0.1434  0.2183 -0.5460
 1174UDC     C912912  14.804   3.551  12.216 -0.4328  1.1813  0.4828
 1174UDC    C1012913  14.836   3.458  12.331  0.4306 -0.5326  0.5241
 1174UDC    C1112914  14.840   3.304  12.303 -0.3652 -0.4514 -0.0793
 1175UDC     C112915   2.370  14.071   8.944 -0.1619 -0.5533 -0.5780
 1175UDC     C212916   2.340  14.011   9.089  1.6134  0.7437  0.7081
 1175UDC     C312917   2.302  14.126   9.187  0.2094  0.6229 -0.9971
 1175UDC     C412918   2.193  14.222   9.136 -0.0834 -0.1270 -0.6318
 1175UDC     C512919   2.190  14.366   9.194 -0.1407 -0.9698  0.3225
 1175UDC     C612920   2.060  14.409   9.261 -0.1215 -0.0781 -0.2352
 1175UDC     C712921   2.034  14.370   9.404  0.1614  1.5857 -0.2337
 1175UDC     C812922   2.154  14.426   9.484  0.2892  0.3965  0.3892
 1175UDC     C912923   2.104  14.460   9.623 -0.0923  0.0440 -0.0281
 1175UDC    C1012924   1.969  14.536   9.630 -0.0205 -0.6357 -0.5519
 1175UDC    C1112925   1.965  14.674   9.558 -0.3678  0.4511 -0.3080
 1176UDC     C112926   8.671  15.360  15.669  0.4529  1.0791 -0.4125
 1176UDC     C212927   8.721  15.475  15.575  0.2580 -0.0223  0.5828
 1176UDC     C312928   8.868  15.472  15.583 -1.1948 -0.6892 -1.0047
 1176UDC     C412929   8.939  15.574  15.497 -0.7258 -0.2245 -0.5049
 1176UDC     C512930   8.857  15.701  15.529  0.2850  0.0608  0.1724
 1176UDC     C612931   8.956  15.820  15.527 -0.0877  0.8119 -0.5526
 1176UDC     C712932   9.081  15.792  15.440  1.3412  0.5224 -1.5522
 1176UDC     C812933   9.154  15.910  15.381  0.1846 -0.0331  0.3208
 1176UDC     C912934   9.272  15.866  15.283 -0.4760  1.4980 -0.4189
 1176UDC    C1012935   9.243  15.828  15.129  0.1716 -0.6365 -0.8411
 1176UDC    C1112936   9.375  15.855  15.055  0.1514 -0.7220 -0.2009
 1177UDC     C112937   3.417  15.018  19.121  0.1756 -0.1462  0.2464
 1177UDC     C212938   3.467  15.043  18.971 -0.2243 -0.0276  0.9031
 1177UDC     C312939   3.622  15.064  18.968  0.2300  0.3191  0.8244
 1177UDC     C412940   3.666  15.150  19.084 -0.2395  0.2633 -0.4897
 1177UDC     C512941   3.778  15.087  19.178 -1.1152 -0.4875 -0.4352
 1177UDC     C612942   3.929  15.043  19.147 -0.1444  0.7447  0.5245
 1177UDC     C712943   3.943  14.919  19.056  0.5735  0.7790  0.3403
 1177UDC     C812944   4.072  14.916  18.967 -0.0335  0.2509 -0.1668
 1177UDC     C912945   4.195  14.892  19.050 -1.4840  0.1822 -0.6510
 1177UDC    C1012946   4.321  14.937  18.984 -1.3741  0.4300 -0.6757
 1177UDC    C1112947   4.377  14.823  18.893  0.2737 -0.1388 -0.4324
 1178UDC     C112948   3.471   6.432  16.329 -0.1123  0.5523  0.3515
 1178UDC     C212949   3.335   6.506  16.331 -0.7017  0.0116 -0.2815
 1178UDC     C312950   3.300   6.615  16.438 -0.4075 -0.4149 -0.4635
 1178UDC     C412951   3.154   6.646  16.460 -0.2106  0.1597  0.6823
 1178UDC     C512952   3.127   6.770  16.548  0.4049  0.1487  0.4216
 1178UDC     C612953   2.989   6.834  16.520 -0.3144 -0.6360  0.6197
 1178UDC     C712954   2.969   6.887  16.378  0.7273  1.0866 -0.9525
 1178UDC     C812955   3.029   7.023  16.351  1.1626  0.1050  0.4475
 1178UDC     C912956   3.163   7.025  16.280 -0.7585 -0.3189 -0.0182
 1178UDC    C1012957   3.150   6.959  16.136  0.0424  0.2712  0.8228
 1178UDC    C1112958   3.084   7.044  16.021  1.2179  0.5236  0.4370
 1179UDC     C112959   4.614  17.639  11.136 -0.4801 -0.6753  0.0856
 1179UDC     C212960   4.465  17.662  11.113  0.1667 -0.1878  0.4499
 1179UDC     C312961   4.403  17.572  10.999  0.0484 -0.0403 -0.2195
 1179UDC     C412962   4.254  17.582  10.961  0.3846  0.5387 -0.3584
 1179UDC     C512963   4.196  17.507  10.841 -1.6191  0.4387 -0.8045
 1179UDC     C612964   4.270  17.543  10.706  1.0253  0.7841  0.7213
 1179UDC     C712965   4.203  17.482  10.583  0.1888  0.5605  0.1421
 1179UDC     C812966   4.301  17.496  10.471 -0.1956  0.6641 -0.8030
 1179UDC     C912967   4.357  17.641  10.446  0.4018  0.8282 -0.0845
 1179UDC    C1012968   4.453  17.628  10.327  0.2839 -0.2175  0.8342
 1179UDC    C1112969   4.530  17.760  10.319 -0.5991 -0.3093 -0.3672
 1180UDC     C112970  11.829  19.889  17.932  0.6368 -0.7547  0.0718
 1180UDC     C212971  11.936  19.838  17.845 -0.6099 -0.4636  0.8633
 1180UDC     C312972  12.077  19.828  17.904  0.0098 -0.0053 -0.1670
 1180UDC     C412973  12.175  19.758  17.802  1.2327  0.1711 -0.6415
 1180UDC     C512974  12.177  19.807  17.662 -0.7201  0.5807  1.2576
 1180UDC     C612975  12.196  19.705  17.549  0.5252  0.0127 -0.5360
 1180UDC     C712976  12.340  19.645  17.560  1.2667 -1.0099 -0.0537
 1180UDC     C812977  12.451  19.743  17.528 -1.1950  0.0470  0.4161
 1180UDC     C912978  12.587  19.660  17.510  0.1199  1.4374 -0.5688
 1180UDC    C1012979  12.676  19.667  17.636  0.1055  0.3253 -0.4690
 1180UDC    C1112980  12.694  19.817  17.669 -0.7256 -0.7835  0.3793
 1181UDC     C112981  14.964  11.695  14.417  0.1891  0.4692  0.1953
 1181UDC     C212982  15.066  11.707  14.300 -0.3062 -0.5711  0.0353
 1181UDC     C312983  15.111  11.589  14.204  0.1623 -0.1510  0.3561
 1181UDC     C412984  15.203  11.628  14.089  0.0234  0.4451 -1.5195
 1181UDC     C512985  15.224  11.525  13.985 -0.6534  0.0181 -0.3855
 1181UDC     C612986  15.348  11.546  13.893  0.1457 -0.3945 -0.7018
 1181UDC     C712987  15.399  11.428  13.813  0.0239  0.4282  0.0485
 1181UDC     C812988  15.448  11.312  13.904  0.9351  0.0811  0.0452
 1181UDC     C912989  15.591  11.286  13.937 -0.1889  0.2112  0.5147
 1181UDC    C1012990  15.604  11.161  14.018 -0.7406 -1.5143  0.5859
 1181UDC    C1112991  15.486  11.149  14.112  0.6453 -0.3501  0.0997
 1182UDC     C112992  15.903   7.814   4.719  0.8167  0.1111  1.1331
 1182UDC     C212993  15.798   7.708   4.755 -0.4076 -0.5400  0.1803
 1182UDC     C312994  15.659   7.755   4.793 -0.0582 -0.7973  0.0852
 1182UDC     C412995  15.563   7.640   4.836  0.0405  0.1230  1.0115
 1182UDC     C512996  15.541   7.528   4.735 -0.1733 -0.0758  0.0155
 1182UDC     C612997  15.493   7.580   4.599  0.4835  0.2612 -0.9147
 1182UDC     C712998  15.361   7.657   4.619 -1.2098 -0.5497  0.4016
 1182UDC     C812999  15.322   7.702   4.472  1.0538 -0.0945 -0.1727
 1182UDC     C913000  15.231   7.820   4.433  0.7878  1.8044 -0.8131
 1182UDC    C1013001  15.094   7.807   4.501  0.1057  1.0376  0.6059
 1182UDC    C1113002  15.094   7.864   4.649  0.0188 -0.5458  0.5504
 1183UDC     C113003  19.918  12.566   2.249 -0.0125 -0.2623 -0.0906
 1183UDC     C213004  19.828  12.526   2.134  0.0946  1.1580  1.6034
 1183UDC     C313005  19.717  12.622   2.088 -0.1566  0.8798 -0.5711
 1183UDC     C413006  19.773  12.744   2.009 -1.6434 -0.7382 -0.3622
 1183UDC     C513007  19.644  12.825   1.974  0.9032  0.5557  0.0661
 1183UDC     C613008  19.656  12.976   1.995 -0.5047 -0.3928 -0.2003
 1183UDC     C713009  19.772  13.031   1.908  0.2756  0.1869  0.9993
 1183UDC     C813010  19.761  13.177   1.880 -0.1721  0.1740 -1.1323
 1183UDC     C913011  19.817  13.271   1.989 -0.4029  0.2360 -0.3566
 1183UDC    C1013012  19.715  13.330   2.083 -0.0785  0.2941  0.6480
 1183UDC    C1113013  19.624  13.429   2.019  1.2879 -0.1776 -0.4843
 1184UDC     C113014  19.399  14.432  16.345 -0.3496 -0.2142  0.9386
 1184UDC     C213015  19.419  14.585  16.337 -0.0506  0.8325  0.8738
 1184UDC     C313016  19.498  14.644  16.219  0.1384  0.6698 -0.4148
 1184UDC     C413017  19.493  14.800  16.208  0.2886 -0.1565  0.5019
 1184UDC     C513018  19.354  14.871  16.209 -0.9832 -0.8800  1.1395
 1184UDC     C613019  19.273  14.856  16.079  1.1421  0.2369  0.2999
 1184UDC     C713020  19.119  14.868  16.104 -0.3329 -0.6402  0.7876
 1184UDC     C813021  19.036  14.789  16.011 -1.5286  1.9099  0.3233
 1184UDC     C913022  18.886  14.784  16.041 -1.5718  0.9583  0.1727
 1184UDC    C1013023  18.839  14.638  16.069 -0.8032  0.8462 -0.1405
 1184UDC    C1113024  18.697  14.630  16.111  0.2439  0.1017 -0.7962
 1185UDC     C113025  18.159  10.095  16.730  0.2544 -0.0644  0.1742
 1185UDC     C213026  18.281  10.167  16.777 -0.4656 -0.2137 -0.1983
 1185UDC     C313027  18.376  10.064  16.827 -0.5417 -0.3362  0.3511
 1185UDC     C413028  18.495  10.087  16.919 -0.0156  0.1373 -0.8400
 1185UDC     C513029  18.497   9.995  17.044  0.0486  0.8617 -0.7106
 1185UDC     C613030  18.580   9.866  17.042 -0.7063 -0.2460 -0.5685
 1185UDC     C713031  18.705   9.869  17.140 -1.3232  0.9577 -0.8739
 1185UDC     C813032  18.792   9.741  17.144  0.1960  0.2094  0.1926
 1185UDC     C913033  18.904   9.745  17.251  0.8119 -0.5833  0.7485
 1185UDC    C1013034  18.974   9.882  17.264 -0.4387 -0.2787  0.0008
 1185UDC    C1113035  19.081   9.877  17.383  0.2867  0.5011 -0.3722
 1186UDC     C113036  17.897   7.890   8.980  0.0252 -0.1539 -1.5731
 1186UDC     C213037  17.835   7.888   9.118 -0.7347  0.5211  0.2020
 1186UDC     C313038  17.794   7.763   9.189 -0.0865  0.0524 -0.0194
 1186UDC     C413039  17.916   7.669   9.222  0.6872 -0.2641  0.8139
 1186UDC     C513040  17.831   7.549   9.254  0.1121  1.2760  0.0500
 1186UDC     C613041  17.785   7.557   9.409  0.1875 -0.1915 -0.5792
 1186UDC     C713042  17.747   7.428   9.500 -0.6435  0.2847  0.9650
 1186UDC     C813043  17.861   7.325   9.515 -0.5052  1.2841  0.0163
 1186UDC     C913044  17.846   7.234   9.634 -0.2420 -0.2251 -0.3077
 1186UDC    C1013045  17.857   7.297   9.774  0.7497  0.5851 -0.1320
 1186UDC    C1113046  17.871   7.203   9.896  0.3464  0.7388 -0.4253
 1187UDC     C113047  13.350  12.532  11.475  0.6334  0.0795 -0.6823
 1187UDC     C213048  13.468  12.496  11.386  0.0094 -1.2347  0.4065
 1187UDC     C313049  13.615  12.565  11.410 -0.1142 -0.9713  1.5322
 1187UDC     C413050  13.732  12.469  11.431  1.3834  0.0535  0.0225
 1187UDC     C513051  13.863  12.530  11.482  0.2392 -0.2169  0.5588
 1187UDC     C613052  13.910  12.660  11.417  0.7282  0.1737  0.2170
 1187UDC     C713053  14.007  12.744  11.498 -0.1578  0.4323  0.6586
 1187UDC     C813054  13.931  12.790  11.627  0.3003  1.0706  0.8717
 1187UDC     C913055  13.894  12.943  11.615  0.0794  0.8438  0.0765
 1187UDC    C1013056  13.828  12.981  11.745 -0.8917  0.9553  0.7128
 1187UDC    C1113057  13.749  13.112  11.722  0.2648 -0.1112 -0.1967
 1188UDC     C113058  17.117   7.091   2.228  0.1465  0.2998 -0.4839
 1188UDC     C213059  17.050   7.127   2.088 -0.0938  0.0841 -0.3146
 1188UDC     C313060  17.121   7.068   1.966 -0.0778  0.6207 -0.1058
 1188UDC     C413061  17.033   7.047   1.843  0.2404 -0.8856  0.0543
 1188UDC     C513062  17.081   6.925   1.766 -0.0868 -0.0478  0.8666
 1188UDC     C613063  17.000   6.885   1.641 -0.8348 -0.9032  0.9854
 1188UDC     C713064  17.007   6.738   1.590  0.7952  0.2564  0.8061
 1188UDC     C813065  17.137   6.660   1.592 -0.0023 -0.4889  0.3618
 1188UDC     C913066  17.216   6.739   1.480  0.6336 -0.0874  0.1871
 1188UDC    C1013067  17.180   6.714   1.332  0.0011 -0.4444 -0.6284
 1188UDC    C1113068  17.261   6.822   1.258 -0.2005  0.2793 -0.0320
 1189UDC     C113069   4.057   3.785  16.133  0.1149  0.5040 -0.2313
 1189UDC     C213070   4.070   3.646  16.070 -0.6996 -0.2833 -0.5904
 1189UDC     C313071   4.146   3.636  15.934  0.0615 -0.3985 -0.4162
 1189UDC     C413072   4.288   3.591  15.985 -0.3212 -0.4954 -0.8489
 1189UDC     C513073   4.388   3.543  15.875  0.1312 -0.9154 -0.1918
 1189UDC     C613074   4.421   3.654  15.778  0.2903 -1.0863  0.1135
 1189UDC     C713075   4.535   3.615  15.684 -0.0352 -0.1299 -0.1243
 1189UDC     C813076   4.560   3.721  15.574  0.0874  0.1058 -0.7522
 1189UDC     C913077   4.431   3.780  15.524  0.4642  0.2688  0.8675
 1189UDC    C1013078   4.424   3.797  15.369 -0.2366 -0.7102  0.1057
 1189UDC    C1113079   4.432   3.652  15.316  0.1518 -0.2923  0.1489
 1190UDC     C113080  12.889   0.045   6.997  0.3581 -0.0618  1.0060
 1190UDC     C213081  12.965   0.160   6.925  0.6325  0.6444  0.1593
 1190UDC     C313082  13.086   0.106   6.846  0.6238  0.6379 -0.2331
 1190UDC     C413083  13.159  -0.014   6.913  0.1321 -0.1586 -0.5882
 1190UDC     C513084  13.214  -0.119   6.821  0.9897 -0.1024  0.7697
 1190UDC     C613085  13.362  -0.083   6.793  0.8539  1.0942  0.1002
 1190UDC     C713086  13.457  -0.122   6.911  0.8784 -0.0691 -1.3223
 1190UDC     C813087  13.555  -0.233   6.881 -0.1899  0.6081 -0.5508
 1190UDC     C913088  13.653  -0.256   7.001  0.4607 -0.0757  0.4043
 1190UDC    C1013089  13.740  -0.372   7.030 -1.6133  0.2025  0.5245
 1190UDC    C1113090  13.881  -0.336   7.074 -0.0073 -0.0096 -0.2034
 1191UDC     C113091  10.098   8.826  16.174 -0.9026 -0.0283  0.0131
 1191UDC     C213092   9.997   8.884  16.276  0.9517 -0.3697  0.0970
 1191UDC     C313093   9.854   8.822  16.268 -0.9503 -1.0713 -0.5805
 1191UDC     C413094   9.763   8.938  16.297 -0.1597  0.2489  1.1887
 1191UDC     C513095   9.760   9.043  16.182  0.2846  0.9343 -0.7152
 1191UDC     C613096   9.641   9.140  16.161  0.1865 -0.7421  0.4860
 1191UDC     C713097   9.504   9.067  16.166 -1.4814 -0.6351 -0.5348
 1191UDC     C813098   9.385   9.158  16.178 -0.0260  1.4814  0.2507
 1191UDC     C913099   9.393   9.244  16.310 -0.5823 -0.0411 -0.5318
 1191UDC    C1013100   9.335   9.184  16.442 -0.9930  1.7811  0.4538
 1191UDC    C1113101   9.310   9.271  16.559  0.0887  0.2542 -1.4859
 1192UDC     C113102  14.441  11.323  10.676  0.5756  0.6196  0.0245
 1192UDC     C213103  14.427  11.178  10.726  0.3711 -0.2451 -0.0951
 1192UDC     C313104  14.530  11.145  10.840  0.4016 -0.6550  0.7508
 1192UDC     C413105  14.489  11.026  10.924 -1.1720  0.1937  0.9030
 1192UDC     C513106  14.414  11.065  11.046  0.5823 -0.0507 -0.6368
 1192UDC     C613107  14.489  11.128  11.166  0.2761 -0.3108  0.5564
 1192UDC     C713108  14.399  11.150  11.289 -0.6946 -0.0949  0.3724
 1192UDC     C813109  14.278  11.243  11.269  0.1873 -0.4598 -0.7617
 1192UDC     C913110  14.213  11.280  11.403 -0.4456  0.6165  0.3992
 1192UDC    C1013111  14.152  11.170  11.497  1.2809 -0.8127  0.5941
 1192UDC    C1113112  14.095  11.205  11.633  1.8990 -0.1491 -0.2922
 1193UDC     C113113  16.454   4.372   9.791 -0.0109  0.0216 -0.2888
 1193UDC     C213114  16.612   4.352   9.773 -0.5596  0.1946  0.3620
 1193UDC     C313115  16.659   4.255   9.668  0.7018 -0.3705 -0.2936
 1193UDC     C413116  16.811   4.255   9.670 -1.0287 -0.7010  1.2819
 1193UDC     C513117  16.839   4.131   9.576 -0.9889  0.2706  0.0572
 1193UDC     C613118  16.992   4.109   9.555  0.1090  0.4925 -0.2447
 1193UDC     C713119  17.062   4.052   9.675 -0.7355 -0.1181  0.3272
 1193UDC     C813120  17.203   4.004   9.652  0.0809  0.4818  0.0319
 1193UDC     C913121  17.284   4.004   9.784  0.4460 -0.8123  0.4852
 1193UDC    C1013122  17.407   3.919   9.783 -0.4196  0.0249  0.3258
 1193UDC    C1113123  17.528   3.973   9.710 -0.3278  0.4092 -0.7822
 1194UDC     C113124   0.988   6.046   4.135 -0.1069  0.6231  0.0119
 1194UDC     C213125   0.867   6.018   4.039 -0.1738 -0.7248 -0.1018
 1194UDC     C313126   0.848   5.874   3.993 -0.1817 -0.2993 -0.2436
 1194UDC     C413127   0.797   5.781   4.105  1.2747 -0.1779 -0.1110
 1194UDC     C513128   0.762   5.641   4.044  0.2703  0.1630 -0.1404
 1194UDC     C613129   0.895   5.599   3.978  0.3488 -0.3618 -0.0652
 1194UDC     C713130   0.884   5.471   3.893 -0.3088  0.1294  0.2437
 1194UDC     C813131   0.888   5.348   3.970  0.2855  0.1200  1.0005
 1194UDC     C913132   0.982   5.378   4.083  0.4924 -0.1374 -0.2931
 1194UDC    C1013133   1.023   5.265   4.181  0.8787  0.0055 -0.0699
 1194UDC    C1113134   1.043   5.315   4.327 -0.7409 -0.8521 -0.6075
 1195UDC     C113135  10.449  13.660  16.452 -0.8169  0.1068  0.5708
 1195UDC     C213136  10.457  13.555  16.333  0.6511 -0.8521 -0.0189
 1195UDC     C313137  10.385  13.424  16.354  1.0133  0.2576 -0.1906
 1195UDC     C413138  10.373  13.330  16.237 -1.0239 -0.3000 -0.2643
 1195UDC     C513139  10.458  13.200  16.234  0.5628 -0.7745 -0.3884
 1195UDC     C613140  10.504  13.142  16.102 -0.1388 -1.0789 -0.5410
 1195UDC     C713141  10.575  13.255  16.011 -0.2756 -0.5020  0.5575
 1195UDC     C813142  10.721  13.298  16.043  0.6790 -0.2438 -0.3545
 1195UDC     C913143  10.818  13.180  16.027 -0.5783  0.7155 -0.6569
 1195UDC    C1013144  10.963  13.179  16.096  0.5803 -0.1435 -0.3799
 1195UDC    C1113145  10.977  13.277  16.218 -0.4662 -0.5750 -0.1711
 1196UDC     C113146   5.361  14.128   2.199 -1.0749  0.5678  0.4981
 1196UDC     C213147   5.431  14.236   2.122 -0.3009 -0.4636  0.5592
 1196UDC     C313148   5.512  14.192   2.001 -0.2354 -0.4390  0.7469
 1196UDC     C413149   5.406  14.178   1.891 -0.4420  0.8075 -0.6509
 1196UDC     C513150   5.349  14.304   1.825  0.5597  0.9504  0.4318
 1196UDC     C613151   5.334  14.297   1.673 -0.1276  0.4990  0.6540
 1196UDC     C713152   5.246  14.398   1.595  0.6319 -0.1375  0.0650
 1196UDC     C813153   5.180  14.336   1.468  1.2188 -0.1720 -1.3964
 1196UDC     C913154   5.110  14.462   1.404 -0.9210  0.0808 -0.0486
 1196UDC    C1013155   5.061  14.435   1.266  0.0753 -1.0855 -0.2933
 1196UDC    C1113156   4.927  14.361   1.249  0.5731 -0.2889 -0.2902
 1197UDC     C113157   1.771  15.753   5.481  0.7998  0.8114 -1.0840
 1197UDC     C213158   1.623  15.701   5.519  0.1568 -0.0246 -0.4040
 1197UDC     C313159   1.554  15.588   5.436 -0.1902 -0.7435  0.0944
 1197UDC     C413160   1.426  15.565   5.502  0.4309 -0.9397 -0.6455
 1197UDC     C513161   1.424  15.470   5.627  0.9187 -0.1063  0.3335
 1197UDC     C613162   1.297  15.436   5.700 -0.4436 -0.7529 -0.3436
 1197UDC     C713163   1.236  15.566   5.751 -1.1814 -0.8007  0.0616
 1197UDC     C813164   1.232  15.586   5.908  0.6965  0.9757  0.9405
 1197UDC     C913165   1.099  15.621   5.978 -0.5061 -0.8113  0.0208
 1197UDC    C1013166   1.009  15.503   6.018  0.5089  0.2067 -1.3745
 1197UDC    C1113167   0.891  15.485   5.922  0.9733 -0.4370  0.6103
 1198UDC     C113168  10.506  11.151   6.886  1.3318 -0.3286  0.4481
 1198UDC     C213169  10.626  11.098   6.960 -0.0651 -0.3769  0.8277
 1198UDC     C313170  10.640  11.113   7.107 -0.0841  0.0887  0.2057
 1198UDC     C413171  10.728  11.020   7.191 -0.2802  0.4098 -0.6349
 1198UDC     C513172  10.883  11.020   7.162 -0.2003  0.9966 -0.9816
 1198UDC     C613173  10.958  10.919   7.261  1.3558 -1.0565  0.0188
 1198UDC     C713174  10.910  10.935   7.410 -0.2372 -0.7547  0.3305
 1198UDC     C813175  10.982  10.860   7.523  0.0304 -0.7606  0.7248
 1198UDC     C913176  10.921  10.849   7.667 -0.3508  0.9827  0.7855
 1198UDC    C1013177  10.880  10.702   7.689 -1.4720 -0.3526 -0.3860
 1198UDC    C1113178  10.778  10.664   7.585  0.3825  0.6515  0.1431
 1199UDC     C113179  18.102   2.807   4.326 -1.2197 -0.1073 -0.4787
 1199UDC     C213180  18.168   2.864   4.459  0.5273  0.1067  0.9095
 1199UDC     C313181  18.238   2.995   4.439 -0.0055  0.5400  0.3044
 1199UDC     C413182  18.354   3.008   4.546 -0.9772  0.2049  0.5838
 1199UDC     C513183  18.436   3.136   4.507 -0.6366  0.3970 -0.2154
 1199UDC     C613184  18.356   3.264   4.523  1.0489 -0.3069 -0.2599
 1199UDC     C713185  18.328   3.309   4.665  1.2441  0.1460  0.7809
 1199UDC     C813186  18.435   3.347   4.761  1.0547 -0.1062 -0.2244
 1199UDC     C913187  18.509   3.229   4.821 -1.0086 -0.0746  1.0696
 1199UDC    C1013188  18.635   3.267   4.897  0.3857 -1.4189 -0.5857
 1199UDC    C1113189  18.737   3.355   4.821  0.1993 -0.5717 -0.6770
 1200UDC     C113190  16.188  14.243  11.585  0.1375  0.2831  0.3433
 1200UDC     C213191  16.256  14.351  11.670 -0.7873  0.7619  0.2846
 1200UDC     C313192  16.402  14.313  11.716 -0.2918  0.5512 -0.1100
 1200UDC     C413193  16.471  14.418  11.819  0.3137 -0.4136 -0.0643
 1200UDC     C513194  16.508  14.533  11.728  0.2231 -0.4889 -0.4982
 1200UDC     C613195  16.556  14.660  11.799  0.9257  0.7244 -0.3089
 1200UDC     C713196  16.593  14.770  11.696  0.3985  0.4221 -0.5940
 1200UDC     C813197  16.733  14.746  11.634 -0.7833 -0.0362 -0.0554
 1200UDC     C913198  16.769  14.818  11.501 -0.1607 -0.0484  0.5389
 1200UDC    C1013199  16.683  14.793  11.376 -0.6808  0.3640  0.5372
 1200UDC    C1113200  16.748  14.844  11.249 -0.8559 -0.6463 -0.3002
 1201UDC     C113201   2.094  18.205   5.475  0.7287  0.4001 -0.7427
 1201UDC     C213202   2.165  18.102   5.379 -0.0407 -0.0216  0.0644
 1201UDC     C313203   2.223  18.158   5.250 -0.2253  1.0774 -0.7268
 1201UDC     C413204   2.105  18.180   5.152  0.5773  0.3379  0.8384
 1201UDC     C513205   2.159  18.205   5.016 -0.7796  0.1864  0.5667
 1201UDC     C613206   2.054  18.205   4.901  0.2305 -0.1098 -0.1484
 1201UDC     C713207   1.944  18.311   4.914 -0.6297 -0.1776 -1.3566
 1201UDC     C813208   1.876  18.356   4.782 -0.3494  0.0070 -1.8632
 1201UDC     C913209   1.847  18.227   4.704 -0.6723  0.8570  0.9482
 1201UDC    C1013210   1.726  18.232   4.609 -0.5414 -0.0073 -0.3482
 1201UDC    C1113211   1.728  18.110   4.513  0.3511 -0.4947  0.0011
 1202UDC     C113212   0.163  17.121   6.188  0.2411 -0.4767  0.4490
 1202UDC     C213213   0.246  17.247   6.231 -0.1627 -1.1242 -0.6649
 1202UDC     C313214   0.365  17.203   6.311 -1.2061  0.7506  0.2978
 1202UDC     C413215   0.481  17.301   6.293  0.6616 -0.5664  0.3802
 1202UDC     C513216   0.432  17.428   6.372 -0.3297 -0.4235  0.9568
 1202UDC     C613217   0.435  17.397   6.517  0.2495 -0.1151  0.1564
 1202UDC     C713218   0.403  17.515   6.601 -0.1083  1.3490  0.1060
 1202UDC     C813219   0.362  17.489   6.749  0.6272 -0.1680  0.2166
 1202UDC     C913220   0.374  17.621   6.830  1.0486 -0.4884 -0.5037
 1202UDC    C1013221   0.522  17.654   6.849 -1.1583 -0.4542  0.1702
 1202UDC    C1113222   0.557  17.781   6.925  0.5721  0.0770 -0.6369
 1203UDC     C113223   3.271  13.383  15.706  0.0327 -0.2450  1.0511
 1203UDC     C213224   3.255  13.342  15.561  0.0680  0.5908  0.5519
 1203UDC     C313225   3.200  13.455  15.468 -0.8825 -0.5069  0.6134
 1203UDC     C413226   3.119  13.390  15.355  0.2170 -0.8054  0.1650
 1203UDC     C513227   2.978  13.333  15.397 -0.1268  0.5791  0.3011
 1203UDC     C613228   2.867  13.443  15.431 -0.1648  0.2085  0.8742
 1203UDC     C713229   2.825  13.527  15.309 -0.2516  1.1039  0.5875
 1203UDC     C813230   2.908  13.654  15.281 -0.0049 -0.3291 -1.6612
 1203UDC     C913231   2.867  13.757  15.171  0.3861  0.3420  0.6498
 1203UDC    C1013232   2.922  13.903  15.188  0.4427  0.1986  0.3714
 1203UDC    C1113233   3.074  13.929  15.200  0.0339 -0.1355 -0.0616
 1204UDC     C113234   7.772  19.430   5.003  0.0103 -0.8340 -0.0645
 1204UDC     C213235   7.627  19.461   4.965 -0.3587  0.7234  1.1229
 1204UDC     C313236   7.578  19.588   5.023 -0.3794  0.0499  0.3595
 1204UDC     C413237   7.444  19.622   4.992 -0.2068 -0.6307 -0.8461
 1204UDC     C513238   7.394  19.738   5.077 -0.4140  0.4180  0.3904
 1204UDC     C613239   7.361  19.696   5.226  1.1001 -0.6538  0.6282
 1204UDC     C713240   7.331  19.823   5.303  0.7925 -0.6219  1.8371
 1204UDC     C813241   7.302  19.809   5.447  1.4887  1.1742 -0.3076
 1204UDC     C913242   7.350  19.922   5.542  0.5435  0.5995 -0.4983
 1204UDC    C1013243   7.285  19.906   5.688 -0.1782 -0.4414 -0.8675
 1204UDC    C1113244   7.133  19.912   5.693  1.0568 -0.4410  0.3953
 1205UDC     C113245   0.227   9.723  17.072  0.2327 -0.4175  0.7444
 1205UDC     C213246   0.263   9.709  16.922  0.0647  0.7076  0.0117
 1205UDC     C313247   0.412   9.716  16.880 -0.3707  0.3342 -0.8016
 1205UDC     C413248   0.503   9.693  17.003 -0.4783  1.3214 -0.2270
 1205UDC     C513249   0.653   9.704  16.976  0.8097 -0.2356  0.2795
 1205UDC     C613250   0.750   9.704  17.087 -0.2199 -0.8762  0.3426
 1205UDC     C713251   0.732   9.820  17.190  1.1426  1.2350 -0.7460
 1205UDC     C813252   0.714   9.764  17.334  0.0807  0.2393 -0.9785
 1205UDC     C913253   0.783   9.628  17.380  0.7180 -0.5630  0.2058
 1205UDC    C1013254   0.715   9.583  17.511 -0.2005  0.2139 -1.3009
 1205UDC    C1113255   0.667   9.433  17.520  0.4784 -0.1033  0.3792
 1206UDC     C113256   9.122  11.203  10.270 -0.3044  0.7259 -1.4073
 1206UDC     C213257   9.208  11.207  10.389 -0.0054 -0.5936  0.4562
 1206UDC     C313258   9.123  11.170  10.516  0.1846  0.0289  0.4454
 1206UDC     C413259   9.156  11.034  10.572 -0.3618 -0.4161 -0.5646
 1206UDC     C513260   9.269  11.028  10.688  0.3785  0.5925  0.6663
 1206UDC     C613261   9.288  10.903  10.759  0.1265  0.2003 -0.4404
 1206UDC     C713262   9.367  10.922  10.893 -0.4654 -0.9601  0.1320
 1206UDC     C813263   9.449  10.799  10.935 -2.0214  0.0619  0.1422
 1206UDC     C913264   9.531  10.820  11.061  1.4694  0.0050 -0.1758
 1206UDC    C1013265   9.680  10.793  11.049 -1.0946 -1.3662 -0.9382
 1206UDC    C1113266   9.717  10.766  10.905 -0.0367  0.6099 -0.0358
 1207UDC     C113267   1.537   5.420  14.086 -0.3589  0.6332  1.2525
 1207UDC     C213268   1.666   5.429  14.174  1.2495 -0.3281 -0.2805
 1207UDC     C313269   1.691   5.299  14.255  0.0513 -0.3032 -0.2210
 1207UDC     C413270   1.786   5.315  14.373 -0.2602  0.0709  0.6516
 1207UDC     C513271   1.851   5.195  14.435 -0.5466  0.0206  0.4620
 1207UDC     C613272   2.002   5.203  14.398 -0.4104  0.3531 -0.1444
 1207UDC     C713273   2.092   5.077  14.443 -0.5494 -0.6174 -1.0147
 1207UDC     C813274   2.016   4.946  14.425  0.0664 -0.5879 -0.4850
 1207UDC     C913275   2.080   4.824  14.497 -0.2189 -0.7598 -1.1910
 1207UDC    C1013276   1.996   4.693  14.492  0.1414 -0.3166  0.6031
 1207UDC    C1113277   2.082   4.577  14.550  0.5254  0.2284 -0.6520
 1208UDC     C113278   6.025   1.706   8.642 -0.1461 -0.2662 -0.1123
 1208UDC     C213279   6.091   1.620   8.751 -1.1561  0.8551 -0.2233
 1208UDC     C313280   6.187   1.516   8.692 -0.2392 -0.5516 -0.2622
 1208UDC     C413281   6.329   1.567   8.648  0.0362  0.0688  0.8018
 1208UDC     C513282   6.429   1.467   8.574 -0.1651 -0.7244 -0.7895
 1208UDC     C613283   6.550   1.516   8.489  0.6895 -0.3249  0.2405
 1208UDC     C713284   6.511   1.573   8.349 -0.2817 -0.9744 -0.0342
 1208UDC     C813285   6.621   1.629   8.254 -0.5218  0.8765 -0.1763
 1208UDC     C913286   6.702   1.753   8.292  0.4357 -0.6127 -1.0756
 1208UDC    C1013287   6.822   1.762   8.197 -0.6635 -0.7023  0.4605
 1208UDC    C1113288   6.782   1.785   8.049  0.1431 -0.4266 -0.7908
 1209UDC     C113289   4.666   6.873  16.571  0.7710  0.3960 -0.4191
 1209UDC     C213290   4.669   6.723  16.565  0.1810  0.1549  0.1229
 1209UDC     C313291   4.795   6.646  16.600  0.2699 -0.6918 -0.2011
 1209UDC     C413292   4.776   6.500  16.580  0.5817  0.1629  0.1809
 1209UDC     C513293   4.674   6.424  16.676 -0.4155 -1.4709 -0.0784
 1209UDC     C613294   4.737   6.287  16.691 -0.9570 -1.0918  0.4047
 1209UDC     C713295   4.692   6.224  16.559 -0.3985  0.1858  0.3417
 1209UDC     C813296   4.744   6.076  16.556  0.0705 -1.2867 -0.8806
 1209UDC     C913297   4.701   5.988  16.668 -0.2802  0.6164 -0.5946
 1209UDC    C1013298   4.751   5.832  16.668  0.3756 -0.5286  0.2971
 1209UDC    C1113299   4.683   5.752  16.781  0.2851  0.4165  0.7851
 1210UDC     C113300  19.423  19.737   6.786 -0.1420  0.3672  0.1938
 1210UDC     C213301  19.483  19.671   6.909 -0.4379 -0.7685  0.2304
 1210UDC     C313302  19.500  19.522   6.911 -1.0966 -0.2985  0.6519
 1210UDC     C413303  19.393  19.446   6.974 -0.5655  0.0071  0.6090
 1210UDC     C513304  19.405  19.286   6.958  0.1484 -0.5149  0.1058
 1210UDC     C613305  19.386  19.235   6.816 -0.1304 -0.5236 -0.9714
 1210UDC     C713306  19.242  19.273   6.757 -1.2164 -0.2869 -0.1727
 1210UDC     C813307  19.197  19.228   6.618  0.4734 -0.1319 -0.2284
 1210UDC     C913308  19.045  19.247   6.610 -0.0934  0.5731 -0.2006
 1210UDC    C1013309  18.986  19.258   6.465  0.9603  0.3565  0.8809
 1210UDC    C1113310  18.990  19.115   6.401 -0.9308  0.9858 -0.3733
 1211UDC     C113311  16.370   4.910   6.899 -0.1511 -0.4546 -0.2874
 1211UDC     C213312  16.237   4.837   6.877 -0.4234  0.2036  0.2578
 1211UDC     C313313  16.142   4.819   6.994 -0.2172 -0.6658  0.5014
 1211UDC     C413314  16.040   4.724   6.928 -0.0205 -0.7247  0.6954
 1211UDC     C513315  15.894   4.744   6.949 -0.1851  0.7627  0.2600
 1211UDC     C613316  15.790   4.668   6.863 -0.2582  0.2628  0.5364
 1211UDC     C713317  15.643   4.709   6.814 -0.1642 -0.0647  0.6834
 1211UDC     C813318  15.538   4.640   6.897  0.4247 -0.0463  0.1696
 1211UDC     C913319  15.518   4.708   7.029 -0.0324 -0.6154 -0.5867
 1211UDC    C1013320  15.374   4.681   7.068  0.1024 -0.6657  0.0273
 1211UDC    C1113321  15.318   4.750   7.192 -0.4690 -0.2391 -0.9673
 1212UDC     C113322  18.844   4.026   1.711 -1.1356 -0.0931  1.1854
 1212UDC     C213323  18.930   3.889   1.714 -0.7495 -0.5350  0.3522
 1212UDC     C313324  18.944   3.813   1.585 -1.1143 -1.1573  0.7199
 1212UDC     C413325  19.048   3.695   1.604 -0.2284 -0.4675 -1.1776
 1212UDC     C513326  19.188   3.736   1.643 -0.6250  1.1158  0.0470
 1212UDC     C613327  19.271   3.608   1.668 -0.8922 -0.9445 -0.1970
 1212UDC     C713328  19.404   3.637   1.739 -1.1322  0.1997  0.9782
 1212UDC     C813329  19.513   3.709   1.654 -0.1065 -0.3027  0.2699
 1212UDC     C913330  19.634   3.754   1.745  0.6442  0.0834  0.1026
 1212UDC    C1013331  19.601   3.822   1.884 -0.0961  1.4050 -0.0477
 1212UDC    C1113332  19.706   3.852   1.988  0.3332 -0.9682  0.4917
 1213UDC     C113333   9.112  10.058   1.132 -0.0783 -0.0058  0.7869
 1213UDC     C213334   9.142  10.158   1.010  1.2389  0.5049 -1.1878
 1213UDC     C313335   9.284  10.199   1.001 -0.3430 -0.2262 -0.1692
 1213UDC     C413336   9.321  10.278   0.872 -0.2504  0.9118 -0.0586
 1213UDC     C513337   9.294  10.206   0.731 -0.6734 -0.0183 -0.1556
 1213UDC     C613338   9.318  10.301   0.610  0.3151  0.2912  0.0955
 1213UDC     C713339   9.463  10.349   0.582  0.4729  0.0581 -0.1718
 1213UDC     C813340   9.500  10.483   0.521  0.0064 -0.5581  0.7437
 1213UDC     C913341   9.389  10.585   0.530 -1.0066  0.3262  0.9952
 1213UDC    C1013342   9.421  10.704   0.434 -1.5985  0.3019  0.0915
 1213UDC    C1113343   9.344  10.833   0.447  0.0751  0.5767  0.2091
 1214UDC     C113344  11.733   4.808  16.358 -1.1015 -0.3324 -0.6275
 1214UDC     C213345  11.774   4.944  16.425 -0.3231  0.5673 -0.6179
 1214UDC     C313346  11.673   4.962  16.542 -0.4337  1.2690 -0.8428
 1214UDC     C413347  11.684   5.097  16.617 -0.6762  0.5205  0.4834
 1214UDC     C513348  11.645   5.218  16.523 -0.3060  0.0424  0.5295
 1214UDC     C613349  11.624   5.350  16.593 -0.2809 -0.5376  0.4716
 1214UDC     C713350  11.749   5.434  16.644 -0.7738  1.1901 -0.4066
 1214UDC     C813351  11.854   5.440  16.543 -0.0295 -0.7615 -0.2819
 1214UDC     C913352  11.994   5.462  16.595 -0.5178 -1.2159  0.1280
 1214UDC    C1013353  12.092   5.519  16.492 -0.5685 -0.5123 -0.0870
 1214UDC    C1113354  12.236   5.548  16.551 -0.2074  0.0903 -0.2821
 1215UDC     C113355  17.891   7.365   0.848  0.2612  1.1754  0.0896
 1215UDC     C213356  17.754   7.289   0.832 -1.0420 -0.4760  1.0978
 1215UDC     C313357  17.732   7.233   0.685 -1.2722  1.2767 -0.5356
 1215UDC     C413358  17.588   7.173   0.682  0.0688 -0.9176  0.8137
 1215UDC     C513359  17.537   7.051   0.758 -1.3588 -0.1062  0.5237
 1215UDC     C613360  17.394   7.010   0.735  0.1611  0.3318 -0.1324
 1215UDC     C713361  17.373   6.882   0.819  0.1213 -1.0780  0.2957
 1215UDC     C813362  17.253   6.784   0.786 -0.6458  0.3748 -0.5025
 1215UDC     C913363  17.258   6.630   0.811  0.0233 -0.4363 -1.0127
 1215UDC    C1013364  17.384   6.558   0.849  0.2709  0.5492 -0.3306
 1215UDC    C1113365  17.360   6.414   0.840 -0.6554  0.3942 -0.2255
 1216UDC     C113366   7.731  14.560  18.621  0.0842  0.6694  0.3349
 1216UDC     C213367   7.864  14.503  18.680  0.2678 -1.1443 -0.3941
 1216UDC     C313368   7.911  14.608  18.785 -0.0818  0.8372  0.0693
 1216UDC     C413369   8.038  14.549  18.858  0.1224 -0.4941  0.1585
 1216UDC     C513370   8.074  14.599  19.001  0.2482 -0.0969 -1.2690
 1216UDC     C613371   8.038  14.485  19.106  0.1658 -1.2409 -0.0659
 1216UDC     C713372   7.983  14.522  19.242  0.4120  0.5306 -0.9830
 1216UDC     C813373   7.920  14.413  19.338  0.2601  1.0137 -0.3310
 1216UDC     C913374   8.004  14.321  19.429 -0.9520  0.9464  1.4794
 1216UDC    C1013375   8.091  14.402  19.529 -0.1849  1.1796 -0.5972
 1216UDC    C1113376   8.251  14.428  19.509  0.3718 -0.0517 -0.0411
 1217UDC     C113377   2.573  14.009   1.804  0.1678 -0.1137 -0.1372
 1217UDC     C213378   2.433  14.068   1.757  0.9637 -0.8477  0.5161
 1217UDC     C313379   2.440  14.124   1.611 -0.5135 -0.0990  0.4131
 1217UDC     C413380   2.459  14.025   1.493  0.1319  0.2387 -0.3126
 1217UDC     C513381   2.477  14.079   1.351 -0.4604 -0.8873  0.3887
 1217UDC     C613382   2.425  14.222   1.344  0.8265  0.0168 -0.2921
 1217UDC     C713383   2.410  14.287   1.206 -0.7918 -0.5342  0.0732
 1217UDC     C813384   2.432  14.434   1.221  0.2892 -0.4500  0.3358
 1217UDC     C913385   2.436  14.513   1.086 -0.3743 -0.1159 -0.1798
 1217UDC    C1013386   2.421  14.664   1.062 -0.5821 -0.5584  0.1499
 1217UDC    C1113387   2.465  14.731   0.927 -0.6754  0.0771  0.3979
 1218UDC     C113388   2.835   1.874   6.231 -0.4717 -1.1494  0.7705
 1218UDC     C213389   2.677   1.880   6.221 -0.5499 -0.5342  0.4138
 1218UDC     C313390   2.610   2.016   6.260 -0.4135  0.6880  0.6393
 1218UDC     C413391   2.620   2.041   6.404  0.3438 -0.8428  0.3937
 1218UDC     C513392   2.528   2.158   6.448  0.4698  0.8628  0.8799
 1218UDC     C613393   2.535   2.199   6.597 -0.1561  0.1648  0.4577
 1218UDC     C713394   2.458   2.325   6.639 -0.5215  0.2508 -0.1879
 1218UDC     C813395   2.410   2.296   6.777 -0.1851 -0.8416 -1.0381
 1218UDC     C913396   2.509   2.295   6.900  0.4324  0.5546  0.6759
 1218UDC    C1013397   2.477   2.186   6.998 -0.2111 -1.3289  0.1817
 1218UDC    C1113398   2.589   2.163   7.102 -0.5082  0.2940  0.4606
 1219UDC     C113399  18.055  16.554   3.331  0.4770 -0.2869 -0.2984
 1219UDC     C213400  18.079  16.421   3.396  0.9602 -0.0599  0.1217
 1219UDC     C313401  18.084  16.418   3.545  0.2580 -0.0615 -0.1325
 1219UDC     C413402  17.954  16.398   3.626 -0.8106  0.2201  0.6865
 1219UDC     C513403  17.976  16.370   3.770  0.1153 -0.7558 -1.1948
 1219UDC     C613404  17.870  16.276   3.823  0.8289 -0.6435 -0.1580
 1219UDC     C713405  17.935  16.207   3.947  0.5905  0.0316  0.0406
 1219UDC     C813406  17.869  16.066   3.959  0.0465 -0.2353 -0.2591
 1219UDC     C913407  17.948  15.983   3.850 -0.0191  0.2171 -0.6395
 1219UDC    C1013408  17.911  15.834   3.844 -0.2964  1.0277 -0.2942
 1219UDC    C1113409  17.969  15.746   3.730  0.9212 -0.4266  0.3144
 1220UDC     C113410   7.231  17.521   8.378 -0.6438  0.3800  0.1711
 1220UDC     C213411   7.238  17.485   8.228  0.6969  0.3049 -0.0337
 1220UDC     C313412   7.358  17.394   8.199 -0.3307  0.0757 -0.0238
 1220UDC     C413413   7.386  17.364   8.053  0.1832  0.0791 -0.1426
 1220UDC     C513414   7.458  17.480   7.989  0.0181 -0.0765 -1.2641
 1220UDC     C613415   7.499  17.457   7.847  0.7389  0.9004 -0.0978
 1220UDC     C713416   7.574  17.563   7.775  0.5162 -0.3275 -0.2649
 1220UDC     C813417   7.488  17.666   7.700 -0.4040  0.4581 -0.8540
 1220UDC     C913418   7.569  17.786   7.651  0.4807 -0.2123 -0.4509
 1220UDC    C1013419   7.692  17.753   7.557  0.1306  0.5745  0.0321
 1220UDC    C1113420   7.795  17.870   7.550  0.8120  0.2962  0.0020
 1221UDC     C113421  19.172   0.858   9.351  0.0082  0.0362 -0.1897
 1221UDC     C213422  19.152   0.990   9.275 -1.2354 -0.5196 -1.1161
 1221UDC     C313423  19.218   1.118   9.344  0.6087  0.1873 -0.5795
 1221UDC     C413424  19.247   1.246   9.260 -0.0495  0.1283 -0.5015
 1221UDC     C513425  19.392   1.307   9.290  0.7132 -0.3322  0.1986
 1221UDC     C613426  19.428   1.374   9.427  0.3193  0.1821 -0.6870
 1221UDC     C713427  19.579   1.382   9.456  0.5952 -0.4722 -0.2921
 1221UDC     C813428  19.601   1.465   9.586 -0.0477 -0.0521 -0.1580
 1221UDC     C913429  19.734   1.541   9.624  1.5438 -0.2015  0.1300
 1221UDC    C1013430  19.746   1.660   9.530 -0.2908 -0.1973 -0.8035
 1221UDC    C1113431  19.682   1.781   9.611 -0.0838 -1.1971  0.1703
 1222UDC     C113432  13.927  14.760   9.149  0.7659 -0.2211  0.1267
 1222UDC     C213433  13.978  14.652   9.242 -0.5998  0.7059 -0.6142
 1222UDC     C313434  13.879  14.610   9.350  0.5730 -0.9925 -0.4096
 1222UDC     C413435  13.957  14.529   9.450 -1.0025 -0.4870 -0.5438
 1222UDC     C513436  14.047  14.615   9.535  0.2845  0.6030 -0.5918
 1222UDC     C613437  14.142  14.540   9.626 -0.5150 -1.6076  0.1884
 1222UDC     C713438  14.217  14.606   9.751 -0.4084  0.0770 -0.0093
 1222UDC     C813439  14.115  14.679   9.837  0.1570  0.0410 -0.2123
 1222UDC     C913440  14.161  14.709   9.981 -0.2368  0.0707 -0.0952
 1222UDC    C1013441  14.214  14.593  10.062 -0.1554  0.4307  0.1250
 1222UDC    C1113442  14.218  14.614  10.216  0.3660  0.2560 -0.0233
 1223UDC     C113443  19.587  17.173  13.611 -0.0835 -0.6703 -0.2443
 1223UDC     C213444  19.542  17.326  13.604  0.9987  0.2846  0.1657
 1223UDC     C313445  19.388  17.348  13.588  0.3276  0.1137  0.3521
 1223UDC     C413446  19.363  17.430  13.460  0.3323 -0.5550  0.3607
 1223UDC     C513447  19.210  17.455  13.467  1.3941  0.8077  0.4708
 1223UDC     C613448  19.141  17.585  13.423  0.0301 -0.4963  0.4608
 1223UDC     C713449  19.050  17.658  13.528  0.0080  0.1098 -0.1153
 1223UDC     C813450  19.007  17.601  13.663 -0.4397 -0.0909  0.4975
 1223UDC     C913451  18.927  17.700  13.752  0.3730  0.1591 -1.0220
 1223UDC    C1013452  18.989  17.836  13.772  0.6065  0.6611 -0.5170
 1223UDC    C1113453  18.932  17.945  13.864 -0.8248  0.6389  0.0848
 1224UDC     C113454  15.284   2.650  12.486 -0.6669 -1.0016  0.3102
 1224UDC     C213455  15.365   2.524  12.482  0.5882 -0.2659 -1.0231
 1224UDC     C313456  15.432   2.472  12.354  0.4314 -0.7509  0.4996
 1224UDC     C413457  15.501   2.332  12.356 -0.6729 -0.4102 -0.4871
 1224UDC     C513458  15.612   2.334  12.467  0.4055  0.0216 -1.1345
 1224UDC     C613459  15.683   2.196  12.451 -0.2427 -0.3649  0.0874
 1224UDC     C713460  15.820   2.160  12.511 -0.2424 -0.0736 -0.2553
 1224UDC     C813461  15.865   2.030  12.444 -0.1567 -0.1006 -0.2015
 1224UDC     C913462  15.939   1.950  12.548 -0.2515 -0.0035 -1.3489
 1224UDC    C1013463  15.887   1.943  12.688 -0.1265 -0.1461  0.0885
 1224UDC    C1113464  15.813   1.813  12.716 -0.7550 -0.4206 -0.0924
 1225UDC     C113465   3.327  16.496   2.643 -0.5907 -0.2421 -0.6359
 1225UDC     C213466   3.181  16.519   2.682 -0.5466 -0.0408 -0.6275
 1225UDC     C313467   3.162  16.563   2.826  1.0071 -1.9729  0.2231
 1225UDC     C413468   3.021  16.551   2.883  0.5448  0.6676 -0.8762
 1225UDC     C513469   2.952  16.419   2.925 -0.4673 -0.6544  0.5051
 1225UDC     C613470   2.797  16.410   2.916  0.1554 -0.7566 -1.0645
 1225UDC     C713471   2.748  16.453   2.782  0.2290 -0.1635  1.1677
 1225UDC     C813472   2.599  16.443   2.780  0.6492 -0.8222 -1.0339
 1225UDC     C913473   2.571  16.290   2.800 -0.8202  0.1988 -0.6928
 1225UDC    C1013474   2.457  16.228   2.726  0.6147 -0.1859  0.3417
 1225UDC    C1113475   2.406  16.096   2.787 -0.5141  0.4253 -0.4928
 1226UDC     C113476  17.284   9.995   6.501 -0.5431 -0.5572 -0.3572
 1226UDC     C213477  17.392   9.881   6.475  0.3499 -1.1311  0.4340
 1226UDC     C313478  17.454   9.903   6.336  0.4977 -0.2554  0.7417
 1226UDC     C413479  17.603   9.884   6.314 -1.5270 -0.7475  1.2769
 1226UDC     C513480  17.632   9.938   6.171  1.0371  0.5515  0.8725
 1226UDC     C613481  17.775   9.971   6.125 -0.3950  0.2738  0.5946
 1226UDC     C713482  17.811   9.982   5.972  0.3823  0.2154 -0.5227
 1226UDC     C813483  17.850   9.846   5.903 -0.3771 -0.3174 -1.1607
 1226UDC     C913484  17.739   9.737   5.886 -0.6755 -0.8162  0.8451
 1226UDC    C1013485  17.796   9.625   5.796 -0.1953  0.0038 -0.9752
 1226UDC    C1113486  17.674   9.562   5.726  0.1101 -0.2589 -0.3921
 1227UDC     C113487  10.803  11.259  11.005 -0.5465  0.4850  0.5323
 1227UDC     C213488  10.873  11.337  10.898  0.5647 -0.1625  0.6657
 1227UDC     C313489  10.804  11.455  10.820 -0.2794  0.4926 -0.1839
 1227UDC     C413490  10.903  11.517  10.712  0.3293 -1.1338  0.2556
 1227UDC     C513491  10.847  11.593  10.596  0.3533 -0.1321 -0.3655
 1227UDC     C613492  10.781  11.519  10.481 -0.1059  0.1595 -0.1867
 1227UDC     C713493  10.766  11.597  10.350  0.4460 -0.9308  0.2104
 1227UDC     C813494  10.681  11.524  10.246 -0.0802 -0.2264 -0.6978
 1227UDC     C913495  10.650  11.621  10.127 -0.2477 -0.7313  1.0401
 1227UDC    C1013496  10.769  11.674  10.045  0.0108  0.6469  0.3714
 1227UDC    C1113497  10.728  11.748   9.917  0.2081  0.5662  0.0985
 1228UDC     C113498  17.017   2.412  19.314 -0.9658  0.2620 -0.1918
 1228UDC     C213499  16.928   2.318  19.236  0.0105  0.4273 -0.1341
 1228UDC     C313500  16.885   2.185  19.307  0.2727 -1.1202 -0.2740
 1228UDC     C413501  16.762   2.209  19.399  0.0831  1.1380 -1.5375
 1228UDC     C513502  16.743   2.111  19.527  1.2778 -1.1235  0.6241
 1228UDC     C613503  16.610   2.150  19.589  0.4521  1.2707  0.3021
 1228UDC     C713504  16.505   2.050  19.532  0.3401 -0.1345 -0.8016
 1228UDC     C813505  16.518   1.910  19.588  0.2655  0.1900  0.8004
 1228UDC     C913506  16.432   1.822  19.498  0.2014 -0.3373 -0.1072
 1228UDC    C1013507  16.456   1.675  19.508 -0.0008  0.9872 -0.2053
 1228UDC    C1113508  16.560   1.638  19.400 -0.8066 -0.0902 -0.5801
 1229UDC     C113509   1.488   5.546   9.191 -0.3175 -0.5432 -0.2088
 1229UDC     C213510   1.443   5.490   9.056  0.2473 -0.4800  0.3844
 1229UDC     C313511   1.460   5.341   9.037 -0.4577  0.9128  0.4443
 1229UDC     C413512   1.608   5.306   9.012  0.7279 -0.9512 -0.8666
 1229UDC     C513513   1.610   5.148   9.019 -0.8687  0.1225 -0.0681
 1229UDC     C613514   1.498   5.088   9.099  1.1556 -0.0436  0.7259
 1229UDC     C713515   1.506   4.936   9.121 -0.5496  0.3225 -0.3696
 1229UDC     C813516   1.374   4.855   9.115  0.5757  0.7365 -1.1000
 1229UDC     C913517   1.273   4.903   9.224  0.3822  0.3265 -1.1005
 1229UDC    C1013518   1.278   4.835   9.368 -0.9583  0.0173 -0.8382
 1229UDC    C1113519   1.144   4.868   9.444  0.1231  0.5515  0.1139
 1230UDC     C113520  19.584   6.885   7.188 -0.3960 -0.3973  0.0982
 1230UDC     C213521  19.672   6.968   7.085  1.1179  0.7870 -0.4741
 1230UDC     C313522  19.624   7.016   6.953 -0.3543  0.5190 -0.4324
 1230UDC     C413523  19.741   7.080   6.874 -0.7138  0.2142  0.7518
 1230UDC     C513524  19.769   7.228   6.892 -0.3882  0.0192 -0.6422
 1230UDC     C613525  19.905   7.250   6.830 -0.3024 -1.5490  0.9594
 1230UDC     C713526  19.997   7.377   6.859  1.2094  0.2176 -1.1424
 1230UDC     C813527  20.065   7.430   6.736  0.4796  0.3029 -0.0286
 1230UDC     C913528  19.966   7.503   6.638 -0.4756  1.0434 -0.3009
 1230UDC    C1013529  19.903   7.637   6.665  0.7221 -1.5688  0.7967
 1230UDC    C1113530  19.797   7.687   6.575  0.8452 -0.1734  0.7063
 1231UDC     C113531  18.638  10.635  14.144 -0.8792 -0.8297 -0.2867
 1231UDC     C213532  18.733  10.531  14.096 -1.3749  1.1715 -0.6623
 1231UDC     C313533  18.865  10.604  14.063 -0.1749 -0.2298 -0.1252
 1231UDC     C413534  18.981  10.531  13.990  0.3454  0.4879  0.1791
 1231UDC     C513535  18.975  10.478  13.851  0.1058 -0.3692  0.0615
 1231UDC     C613536  18.969  10.593  13.739  1.0531  0.3405  0.2806
 1231UDC     C713537  18.938  10.543  13.596 -0.1798 -0.4969  0.7674
 1231UDC     C813538  18.796  10.508  13.546  0.4541 -0.2779 -0.1315
 1231UDC     C913539  18.785  10.444  13.408  0.2978  0.8839  0.7627
 1231UDC    C1013540  18.646  10.390  13.364 -0.3787  0.8374 -0.4963
 1231UDC    C1113541  18.627  10.300  13.239 -0.5304  0.0665  0.5640
 1232UDC     C113542   4.069  13.467  14.639  0.5058  0.7203  0.2497
 1232UDC     C213543   4.060  13.520  14.494 -0.0506 -0.5406  0.3805
 1232UDC     C313544   4.182  13.485  14.414  0.2552  0.7030  0.7383
 1232UDC     C413545   4.197  13.599  14.311  0.9344 -0.5365  0.8380
 1232UDC     C513546   4.232  13.537  14.173  0.7912  1.4451 -0.1702
 1232UDC     C613547   4.135  13.418  14.138 -0.6068 -0.2626  0.1846
 1232UDC     C713548   4.172  13.385  13.993 -0.4471  0.3003 -0.3379
 1232UDC     C813549   4.325  13.366  13.971 -0.7408  0.1342  0.0909
 1232UDC     C913550   4.374  13.344  13.828 -1.5556  0.7491  0.5518
 1232UDC    C1013551   4.369  13.458  13.728 -1.0991 -0.0580  0.0521
 1232UDC    C1113552   4.476  13.568  13.760 -0.4672  1.1153 -0.1144
 1233UDC     C113553   2.300   2.827   3.648 -1.1706 -0.8065 -0.2636
 1233UDC     C213554   2.368   2.699   3.610  0.0428 -0.1788 -0.1758
 1233UDC     C313555   2.482   2.635   3.690 -0.6896 -0.3716  0.1280
 1233UDC     C413556   2.485   2.496   3.616 -0.4212 -0.4104 -0.3580
 1233UDC     C513557   2.590   2.401   3.670 -0.6086  0.8371  0.6150
 1233UDC     C613558   2.585   2.250   3.635  0.6410 -0.6849 -0.0054
 1233UDC     C713559   2.559   2.214   3.485  1.0761  0.4732 -0.7948
 1233UDC     C813560   2.677   2.261   3.403  0.7206  0.0507 -0.5693
 1233UDC     C913561   2.812   2.179   3.407  0.5780 -0.4844 -0.0372
 1233UDC    C1013562   2.913   2.208   3.294  1.1681  0.3670 -0.7807
 1233UDC    C1113563   2.981   2.343   3.305 -0.0040  0.0522 -0.1317
 1234UDC     C113564  17.534   2.336   8.468  0.4744 -0.3713  0.1820
 1234UDC     C213565  17.463   2.348   8.602  1.1313  0.2426  0.5788
 1234UDC     C313566  17.533   2.411   8.728 -0.2065  0.1617  0.5462
 1234UDC     C413567  17.664   2.330   8.767  0.3384 -0.6124  0.2291
 1234UDC     C513568  17.756   2.407   8.865 -0.6165 -0.2012  1.2188
 1234UDC     C613569  17.898   2.427   8.815  0.5433 -0.5064 -0.0442
 1234UDC     C713570  17.964   2.520   8.910  0.2371 -0.4200 -0.4610
 1234UDC     C813571  18.020   2.455   9.040 -0.9363  0.2495 -0.0393
 1234UDC     C913572  18.006   2.547   9.162  0.1093  0.6248 -0.5608
 1234UDC    C1013573  18.080   2.491   9.284 -0.0999  0.4642  0.3016
 1234UDC    C1113574  18.229   2.517   9.293 -0.7359  0.5313  0.1835
 1235UDC     C113575   2.496  12.506   3.480  0.4210  0.5009 -0.5025
 1235UDC     C213576   2.407  12.603   3.397  0.3813 -0.6136 -0.8907
 1235UDC     C313577   2.442  12.753   3.399  0.7268 -0.8944  0.2706
 1235UDC     C413578   2.582  12.772   3.333 -0.2156 -0.3389 -0.1126
 1235UDC     C513579   2.645  12.910   3.344 -0.9916  0.4141  1.3855
 1235UDC     C613580   2.649  12.957   3.490  0.4439 -0.0918  0.2484
 1235UDC     C713581   2.761  12.893   3.576 -0.0033 -0.1534  0.3871
 1235UDC     C813582   2.735  12.959   3.711 -0.8716 -0.1748 -0.8868
 1235UDC     C913583   2.833  12.926   3.826 -0.0048 -0.7711  1.6079
 1235UDC    C1013584   2.785  12.975   3.962  1.1468 -0.3425  0.7669
 1235UDC    C1113585   2.900  13.004   4.052  0.1524 -1.2667 -0.0082
 1236UDC     C113586   8.098   8.530   0.616 -0.4769 -0.9425  1.3383
 1236UDC     C213587   8.135   8.393   0.659  0.0072  1.2129  0.3371
 1236UDC     C313588   8.255   8.334   0.578  0.2644 -0.4678  0.4432
 1236UDC     C413589   8.312   8.201   0.622 -0.6552 -0.1875 -0.8128
 1236UDC     C513590   8.436   8.167   0.545 -0.8295  0.6205 -0.4816
 1236UDC     C613591   8.423   8.059   0.439  0.1427  0.3467  0.0708
 1236UDC     C713592   8.365   7.925   0.497 -0.2280 -0.2734 -0.8924
 1236UDC     C813593   8.459   7.811   0.542 -0.0705  0.2732 -0.2943
 1236UDC     C913594   8.565   7.835   0.650 -1.1308  0.8284 -1.1035
 1236UDC    C1013595   8.703   7.770   0.639 -0.7018  0.8684  0.0823
 1236UDC    C1113596   8.694   7.616   0.624  0.9768 -0.3115  0.1220
 1237UDC     C113597  13.397  11.082  13.580 -0.0618 -0.7731 -0.6150
 1237UDC     C213598  13.345  10.979  13.687  0.7745 -0.1817  0.5209
 1237UDC     C313599  13.441  10.863  13.716 -0.1198  0.1714  0.2710
 1237UDC     C413600  13.576  10.909  13.771 -0.1430 -0.9093  0.4485
 1237UDC     C513601  13.654  10.797  13.845  0.5739 -0.3138 -0.1846
 1237UDC     C613602  13.681  10.666  13.762  0.0055  0.0577 -0.1466
 1237UDC     C713603  13.755  10.556  13.838  0.3250 -0.6587 -0.5763
 1237UDC     C813604  13.840  10.454  13.759 -0.4815  0.2006  0.0455
 1237UDC     C913605  13.963  10.543  13.707 -0.3211  0.8681  0.2807
 1237UDC    C1013606  14.091  10.469  13.648  0.1864  0.9531  0.5302
 1237UDC    C1113607  14.181  10.410  13.752 -1.0401  0.0168 -0.9963
 1238UDC     C113608  19.436   6.624  16.962  1.3025  0.2489 -1.1609
 1238UDC     C213609  19.339   6.668  17.069 -0.1981 -1.1870  0.1071
 1238UDC     C313610  19.388   6.590  17.193  0.5616 -0.5413 -0.0405
 1238UDC     C413611  19.293   6.634  17.312 -0.1966  0.9836  0.2620
 1238UDC     C513612  19.380   6.666  17.430 -0.2536 -1.3066  0.5899
 1238UDC     C613613  19.328   6.768  17.524  0.6012 -0.6624 -0.0497
 1238UDC     C713614  19.423   6.802  17.635  0.1827  0.1638 -0.6960
 1238UDC     C813615  19.563   6.756  17.607  0.8647 -0.0529  0.1303
 1238UDC     C913616  19.669   6.798  17.706  0.2625  0.6903 -0.1244
 1238UDC    C1013617  19.825   6.773  17.667 -0.4561 -0.5928 -0.0577
 1238UDC    C1113618  19.884   6.878  17.564  0.6633  0.0218 -0.3348
 1239UDC     C113619   8.093  14.471   5.352 -0.7899  0.2302  0.7596
 1239UDC     C213620   8.012  14.346   5.413 -0.6053  0.0090  0.3289
 1239UDC     C313621   7.896  14.286   5.340  0.2845  0.5140  0.4510
 1239UDC     C413622   7.835  14.167   5.413  0.7602 -0.1581  0.1707
 1239UDC     C513623   7.931  14.050   5.428  0.8451  0.2323 -0.4112
 1239UDC     C613624   7.896  13.966   5.550 -0.0749 -0.7436 -0.2781
 1239UDC     C713625   8.000  13.870   5.594  0.1563 -0.4425 -0.7151
 1239UDC     C813626   7.989  13.803   5.728  0.0960  0.2015 -0.5923
 1239UDC     C913627   8.031  13.886   5.842 -0.0955 -0.7543 -0.3336
 1239UDC    C1013628   7.983  13.818   5.973  0.0522  0.3803  0.9890
 1239UDC    C1113629   8.056  13.676   5.970  1.4270 -0.5195 -0.0368
 1240UDC     C113630   2.905   7.737  19.084 -0.5514  1.0367  0.7396
 1240UDC     C213631   3.038   7.786  19.020  0.5255  0.1118  1.5047
 1240UDC     C313632   3.050   7.753  18.871 -1.0729 -1.2066  0.0435
 1240UDC     C413633   2.927   7.775  18.783  0.4795  0.1849 -0.4187
 1240UDC     C513634   2.862   7.915  18.786 -0.8267 -0.0159  0.0663
 1240UDC     C613635   2.724   7.925  18.727 -0.3589 -0.5973  0.6822
 1240UDC     C713636   2.653   8.038  18.799 -0.0737 -0.7502 -1.4855
 1240UDC     C813637   2.556   8.007  18.916  0.3122 -0.3168 -0.0675
 1240UDC     C913638   2.503   8.131  18.988 -1.1286 -0.7357 -0.1729
 1240UDC    C1013639   2.444   8.076  19.119 -0.7731  0.3052  1.1081
 1240UDC    C1113640   2.291   8.030  19.102 -0.9915 -0.3568  0.0312
 1241UDC     C113641  18.705  12.557  19.899 -0.3225 -0.5059  1.2472
 1241UDC     C213642  18.801  12.681  19.925  0.5598 -0.3500 -0.5881
 1241UDC     C313643  18.934  12.605  19.931 -0.0166  0.0780  0.4401
 1241UDC     C413644  18.955  12.548  19.793 -0.1044  0.4747 -0.0364
 1241UDC     C513645  19.073  12.460  19.781 -0.7688 -0.7989 -0.8971
 1241UDC     C613646  19.067  12.331  19.858 -0.3396 -0.0142 -0.0004
 1241UDC     C713647  19.206  12.280  19.925 -0.1920 -0.0904  0.8285
 1241UDC     C813648  19.226  12.129  19.958  0.0182 -0.1213 -0.7526
 1241UDC     C913649  19.357  12.061  19.975  0.1177 -0.1064  0.6310
 1241UDC    C1013650  19.430  12.057  19.839  0.6583  0.0041 -0.1318
 1241UDC    C1113651  19.564  11.978  19.808  0.7887  0.6005 -0.5597
 1242UDC     C113652  11.253  16.605  12.073 -0.4031  0.1898 -0.4652
 1242UDC     C213653  11.330  16.579  11.950 -0.3151  0.4727  0.0281
 1242UDC     C313654  11.482  16.574  11.970 -0.6638 -0.4379 -0.2007
 1242UDC     C413655  11.544  16.539  11.832  1.1270 -0.0018 -0.8795
 1242UDC     C513656  11.695  16.535  11.810 -0.3347 -0.8003  0.7499
 1242UDC     C613657  11.742  16.651  11.721 -0.4300 -0.7303  0.4082
 1242UDC     C713658  11.845  16.751  11.788 -0.7147  0.6058  0.8549
 1242UDC     C813659  11.808  16.896  11.759  0.1005 -0.0803  0.0806
 1242UDC     C913660  11.904  17.013  11.793 -0.0650  0.4107 -0.8244
 1242UDC    C1013661  11.863  17.162  11.796 -0.7245  0.4793  0.6756
 1242UDC    C1113662  11.841  17.202  11.655  0.6948  0.0333  1.7377
 1243UDC     C113663   4.777  14.748  18.944 -0.2887 -0.9309  0.0198
 1243UDC     C213664   4.770  14.823  19.077  0.7521  1.0862  1.2614
 1243UDC     C313665   4.900  14.847  19.158  1.2622  0.0801  0.4339
 1243UDC     C413666   4.876  14.928  19.283 -0.2085 -0.3239  0.2965
 1243UDC     C513667   4.851  14.845  19.408  0.6705 -1.0635 -0.1894
 1243UDC     C613668   4.869  14.909  19.546  0.1093 -0.3760 -0.2849
 1243UDC     C713669   4.829  14.807  19.659  0.9237 -0.8019 -0.0643
 1243UDC     C813670   4.848  14.855  19.810  0.9514  0.4720 -0.5853
 1243UDC     C913671   4.778  14.761  19.917 -0.5318 -0.7494  0.2652
 1243UDC    C1013672   4.859  14.756  20.044 -2.3244  0.9903  0.2730
 1243UDC    C1113673   4.798  14.680  20.163  0.9377 -0.6425 -0.6296
 1244UDC     C113674  11.465  12.374  12.684 -0.8153  0.3682  1.1071
 1244UDC     C213675  11.384  12.247  12.725  0.4459 -0.0289 -0.0637
 1244UDC     C313676  11.269  12.221  12.626  1.0820  0.7806 -0.1359
 1244UDC     C413677  11.203  12.084  12.632  0.6608  0.0302 -0.0576
 1244UDC     C513678  11.099  12.067  12.746  0.2129 -0.0258 -0.7134
 1244UDC     C613679  11.081  11.919  12.797 -0.5968 -0.1382  0.1441
 1244UDC     C713680  10.944  11.892  12.861 -0.3515 -1.0333  0.1023
 1244UDC     C813681  10.924  11.975  12.991 -0.2980  0.2987 -1.4372
 1244UDC     C913682  10.783  11.960  13.040 -0.4081 -0.4992 -0.1302
 1244UDC    C1013683  10.687  12.020  12.937  0.5148 -1.5103  0.0833
 1244UDC    C1113684  10.650  12.168  12.943 -0.4222 -0.6130  0.7923
 1245UDC     C113685  15.511   7.283  13.574 -1.0371 -0.4068 -0.8720
 1245UDC     C213686  15.400   7.270  13.677 -0.3688  0.1131  0.0011
 1245UDC     C313687  15.318   7.142  13.694 -0.2488 -0.2320 -0.8653
 1245UDC     C413688  15.288   7.094  13.550 -0.9877  0.2527  0.1560
 1245UDC     C513689  15.247   6.944  13.553 -0.3590 -0.0938 -0.1460
 1245UDC     C613690  15.107   6.910  13.611 -0.8805  0.1475 -0.1317
 1245UDC     C713691  15.082   6.755  13.608  0.1064  0.6170 -0.7233
 1245UDC     C813692  15.210   6.698  13.683  1.2239 -0.0260  0.0267
 1245UDC     C913693  15.217   6.546  13.699 -0.2078 -0.2133 -0.4641
 1245UDC    C1013694  15.358   6.482  13.697 -0.5815 -0.1081 -1.6178
 1245UDC    C1113695  15.350   6.349  13.771  0.6014  0.3231  0.3598
 1246UDC     C113696   2.085   5.978   5.910  0.4266 -0.5222 -0.6043
 1246UDC     C213697   2.016   6.067   5.807  0.3281 -0.2515 -1.0692
 1246UDC     C313698   1.914   6.007   5.715 -0.2566  0.9106  0.3536
 1246UDC     C413699   1.877   6.098   5.594  0.4690 -0.2211 -0.1158
 1246UDC     C513700   1.832   6.023   5.464  0.2677 -1.0024 -0.8623
 1246UDC     C613701   1.938   5.970   5.371 -0.1831  0.0760 -0.2705
 1246UDC     C713702   1.889   5.836   5.312  0.0892  0.3493  0.5868
 1246UDC     C813703   1.980   5.744   5.235  0.0502  1.0718 -1.5003
 1246UDC     C913704   2.104   5.704   5.318  0.1132  1.0140  0.3495
 1246UDC    C1013705   2.136   5.550   5.279  0.2326  1.0373  0.3087
 1246UDC    C1113706   2.089   5.517   5.134  0.0190 -0.4094 -0.1585
 1247UDC     C113707   2.753   6.923  11.628  0.2092  0.1048 -1.0335
 1247UDC     C213708   2.868   6.824  11.617 -0.3913 -0.3751 -0.0196
 1247UDC     C313709   2.858   6.695  11.534  1.1248  0.0173  0.5345
 1247UDC     C413710   2.968   6.598  11.576  0.4184  0.4167  0.4051
 1247UDC     C513711   2.990   6.481  11.479  0.5379 -0.6107  1.1379
 1247UDC     C613712   3.126   6.412  11.508 -0.3295  1.5831 -0.2481
 1247UDC     C713713   3.137   6.265  11.461  0.9480  0.5192  0.8819
 1247UDC     C813714   3.075   6.169  11.578  0.3693  0.6917  0.5214
 1247UDC     C913715   3.043   6.022  11.559  0.1824  0.6847 -0.9943
 1247UDC    C1013716   2.932   5.998  11.666 -0.5997  0.7067  0.5227
 1247UDC    C1113717   2.843   6.114  11.698  0.2353  0.0310  0.3767
 1248UDC     C113718  11.509  13.411   7.966 -0.2253 -0.3086  0.4841
 1248UDC     C213719  11.380  13.457   8.023  0.0853  0.7427 -0.5242
 1248UDC     C313720  11.274  13.533   7.941 -0.6331 -0.4465  0.1476
 1248UDC     C413721  11.156  13.541   8.040  0.2062  0.1919 -0.5719
 1248UDC     C513722  11.189  13.639   8.152  0.9172 -0.5207 -0.1104
 1248UDC     C613723  11.216  13.782   8.102 -1.6540  0.2150 -0.1260
 1248UDC     C713724  11.106  13.887   8.125  0.2995 -0.1229  0.5535
 1248UDC     C813725  11.063  13.881   8.271  0.0585 -0.8076 -0.8099
 1248UDC     C913726  10.945  13.970   8.325 -0.0812 -0.3748  0.2306
 1248UDC    C1013727  10.947  13.964   8.488  0.3599  0.0450  0.5181
 1248UDC    C1113728  11.095  13.986   8.529  0.6771  0.4242  0.8808
 1249UDC     C113729   3.513   6.266   6.921  0.3990  0.7121 -0.5529
 1249UDC     C213730   3.428   6.393   6.905 -0.1041 -0.6692  0.1025
 1249UDC     C313731   3.320   6.382   6.798  0.6472  0.4875  0.4457
 1249UDC     C413732   3.221   6.497   6.791 -0.7021  0.2086 -1.0294
 1249UDC     C513733   3.203   6.574   6.659  0.5909 -0.1131 -0.4687
 1249UDC     C613734   3.333   6.646   6.648  0.2413  0.5675  0.4226
 1249UDC     C713735   3.410   6.611   6.522  0.5056  0.9945  1.3877
 1249UDC     C813736   3.540   6.675   6.509 -0.2225 -0.3118 -0.3965
 1249UDC     C913737   3.631   6.630   6.397  0.0252  0.8215  0.9373
 1249UDC    C1013738   3.770   6.704   6.394 -0.9773  1.3319  0.8067
 1249UDC    C1113739   3.874   6.660   6.289 -0.4068 -1.2318 -0.0625
 1250UDC     C113740  13.001   7.216  17.029 -0.3623  1.0875 -0.3712
 1250UDC     C213741  13.043   7.077  16.980 -0.8400 -0.4624  0.4385
 1250UDC     C313742  13.196   7.060  16.982  0.0745  0.9705  0.2868
 1250UDC     C413743  13.225   6.911  17.016 -0.1491  0.2682  1.3373
 1250UDC     C513744  13.305   6.897  17.143 -0.5484  0.2704 -0.2608
 1250UDC     C613745  13.458   6.900  17.152 -0.3773 -1.2225  0.0309
 1250UDC     C713746  13.489   6.843  17.286 -0.0374 -0.4854 -0.4408
 1250UDC     C813747  13.631   6.780  17.317  0.1052  0.8257 -0.0691
 1250UDC     C913748  13.751   6.872  17.350 -0.7509 -0.4701  0.7163
 1250UDC    C1013749  13.895   6.819  17.361 -0.0056 -1.4100 -0.5193
 1250UDC    C1113750  14.001   6.920  17.395  0.5047 -0.6502 -0.7988
 1251UDC     C113751   4.685  10.275   1.521  0.2300  0.1906  0.5416
 1251UDC     C213752   4.710  10.404   1.590  0.2622 -0.0029 -0.5696
 1251UDC     C313753   4.761  10.505   1.490  0.5614 -0.6799 -0.1207
 1251UDC     C413754   4.753  10.658   1.530  0.0275 -0.1555 -0.4646
 1251UDC     C513755   4.823  10.702   1.662  0.2825  1.0171  0.8108
 1251UDC     C613756   4.766  10.823   1.741 -0.0158  0.9360 -0.6227
 1251UDC     C713757   4.624  10.788   1.776  1.0323 -0.0551 -1.3182
 1251UDC     C813758   4.533  10.895   1.845 -0.4618 -0.7886 -0.1441
 1251UDC     C913759   4.495  11.009   1.758 -0.5023 -0.8666 -0.4911
 1251UDC    C1013760   4.351  11.056   1.784 -0.6647  0.4857  0.2865
 1251UDC    C1113761   4.304  11.173   1.690 -0.6599  0.1260  0.0240
 1252UDC     C113762   6.437  14.907  11.936 -0.8525 -0.9752 -0.4110
 1252UDC     C213763   6.322  14.942  11.848 -0.3159 -1.4350  0.4611
 1252UDC     C313764   6.182  14.889  11.903 -0.5015 -0.6015 -0.9006
 1252UDC     C413765   6.118  15.000  11.994  1.2325 -0.9801  0.1664
 1252UDC     C513766   5.988  14.953  12.067  0.1949  0.7422 -0.1164
 1252UDC     C613767   5.935  15.033  12.182 -1.0816  0.4878 -1.1880
 1252UDC     C713768   5.863  14.935  12.277  0.8518 -0.0898 -0.0453
 1252UDC     C813769   5.816  14.997  12.415 -0.0080  0.1900  0.4426
 1252UDC     C913770   5.740  14.901  12.506 -1.0118 -0.0012 -0.0267
 1252UDC    C1013771   5.589  14.875  12.500 -0.0523 -0.3137  1.0387
 1252UDC    C1113772   5.496  14.999  12.503  0.3289  0.6060 -0.0724
 1253UDC     C113773   4.806  15.580   6.945 -0.2477  0.1564  0.2443
 1253UDC     C213774   4.908  15.511   7.034 -0.2264  0.3788 -0.5082
 1253UDC     C313775   4.837  15.400   7.125 -0.2138 -0.4135  0.2521
 1253UDC     C413776   4.717  15.332   7.051 -0.6804 -0.8719  0.2314
 1253UDC     C513777   4.671  15.211   7.138  0.0144 -0.1082  0.2962
 1253UDC     C613778   4.539  15.136   7.114 -0.5923  0.2336 -0.2550
 1253UDC     C713779   4.490  15.034   7.226 -0.5434  0.3166  0.1744
 1253UDC     C813780   4.420  15.103   7.343  0.5415  0.3166 -0.5955
 1253UDC     C913781   4.403  14.983   7.447 -0.7613  0.3113  0.8329
 1253UDC    C1013782   4.495  14.981   7.572 -0.7043 -1.4361  0.6158
 1253UDC    C1113783   4.461  15.078   7.686  0.5991 -0.7512  0.4545
 1254UDC     C113784  10.535   0.690   3.738  0.4181  0.0523 -0.9972
 1254UDC     C213785  10.547   0.753   3.876 -0.7488 -0.5116 -0.9373
 1254UDC     C313786  10.512   0.675   4.008 -0.7538 -0.7254 -0.1961
 1254UDC     C413787  10.371   0.660   4.068 -0.3419 -0.0406 -0.3530
 1254UDC     C513788  10.288   0.793   4.074  0.1440 -0.7219 -0.2503
 1254UDC     C613789  10.151   0.769   4.007  0.3978  1.1691 -0.4190
 1254UDC     C713790  10.086   0.637   4.068 -0.1969  0.2497 -0.8908
 1254UDC     C813791  10.045   0.645   4.220  0.5626 -0.4078  0.4034
 1254UDC     C913792   9.976   0.517   4.275 -0.4176 -0.3904 -0.3129
 1254UDC    C1013793   9.833   0.505   4.228  0.8499  0.4285  0.1558
 1254UDC    C1113794   9.752   0.387   4.289  0.3082 -0.0991 -0.0388
 1255UDC     C113795  18.553  17.948   2.769 -0.1141  0.1540  0.4280
 1255UDC     C213796  18.619  17.851   2.870 -0.8986 -0.7139 -0.7249
 1255UDC     C313797  18.601  17.698   2.850  1.2655 -0.1167  0.5812
 1255UDC     C413798  18.611  17.626   2.987  0.7344 -0.6063  1.2725
 1255UDC     C513799  18.535  17.489   3.003  0.3039 -0.1342  0.1475
 1255UDC     C613800  18.544  17.380   2.895 -0.6658 -0.1867 -0.0880
 1255UDC     C713801  18.513  17.238   2.969  1.0882 -1.4308 -0.4883
 1255UDC     C813802  18.474  17.119   2.880 -0.5247  0.8702 -0.6825
 1255UDC     C913803  18.517  16.975   2.939 -0.2148 -0.0539  0.5675
 1255UDC    C1013804  18.608  16.908   2.840 -1.8143 -0.3173  1.0999
 1255UDC    C1113805  18.566  16.764   2.797 -0.8561 -0.9886  0.1988
 1256UDC     C113806  19.539   7.853   9.133  0.1972  1.4353  0.2975
 1256UDC     C213807  19.623   7.731   9.190  0.5669 -0.3111  0.0863
 1256UDC     C313808  19.529   7.607   9.213 -0.8187 -0.4597  0.0748
 1256UDC     C413809  19.400   7.641   9.290  0.2573  0.0630  0.4793
 1256UDC     C513810  19.408   7.704   9.425  0.4649  0.2844 -0.0402
 1256UDC     C613811  19.279   7.708   9.507 -0.5163  0.5800  1.5022
 1256UDC     C713812  19.296   7.755   9.651 -0.1218 -0.3752  0.8343
 1256UDC     C813813  19.350   7.897   9.651 -0.0236 -0.2863 -0.5323
 1256UDC     C913814  19.431   7.946   9.772  1.2753 -1.5488 -1.4097
 1256UDC    C1013815  19.488   8.093   9.795  0.7361  0.1119 -0.2189
 1256UDC    C1113816  19.622   8.094   9.866  0.3349 -0.4585 -0.5157
 1257UDC     C113817  19.837  13.347   0.306 -0.4311 -1.0895 -0.5223
 1257UDC     C213818  19.893  13.206   0.288  0.1303  0.3303 -0.5922
 1257UDC     C313819  19.794  13.108   0.348  0.5384  0.6864 -0.2194
 1257UDC     C413820  19.710  13.185   0.460  0.6045  0.2748  0.7990
 1257UDC     C513821  19.644  13.106   0.579 -0.6461 -0.5584  0.3660
 1257UDC     C613822  19.735  13.032   0.673 -0.3265  0.9428 -0.4282
 1257UDC     C713823  19.662  12.948   0.774  0.1027  0.8041 -0.3399
 1257UDC     C813824  19.758  12.878   0.872  0.9976 -0.2408 -0.7781
 1257UDC     C913825  19.700  12.807   0.997  0.1808  1.2425 -0.3672
 1257UDC    C1013826  19.678  12.883   1.132 -0.4247  0.1509  0.0982
 1257UDC    C1113827  19.569  12.996   1.126  0.1335  0.4865  0.2602
 1258UDC     C113828  17.196  13.044  16.371  0.0054  0.3564 -0.2162
 1258UDC     C213829  17.160  13.157  16.269 -0.2840  0.3520 -0.7102
 1258UDC     C313830  17.215  13.145  16.125 -0.5455  0.0359  0.5861
 1258UDC     C413831  17.359  13.090  16.108  0.5124  0.9810 -0.4155
 1258UDC     C513832  17.448  13.122  15.989  0.3353  0.0568 -0.0542
 1258UDC     C613833  17.575  13.039  15.992 -1.1367  1.1375 -0.7204
 1258UDC     C713834  17.672  13.026  15.876  0.4844 -0.2406  0.4476
 1258UDC     C813835  17.741  12.892  15.863  0.0542  0.3060 -0.2598
 1258UDC     C913836  17.654  12.763  15.854 -0.0108  0.4873 -0.3955
 1258UDC    C1013837  17.740  12.642  15.809  0.8297  0.7999  0.0170
 1258UDC    C1113838  17.770  12.621  15.663  0.9799  0.0645 -0.2658
 1259UDC     C113839  10.743   4.664   4.628 -0.2285  0.4984 -0.5481
 1259UDC     C213840  10.873   4.591   4.660  0.4452  0.7214  0.5744
 1259UDC     C313841  10.955   4.626   4.785 -0.3280  0.0417 -0.3679
 1259UDC     C413842  11.024   4.769   4.778 -0.0938 -0.0852 -0.5965
 1259UDC     C513843  11.073   4.856   4.892  0.4365 -0.4305  0.0616
 1259UDC     C613844  11.195   4.805   4.957 -0.1691 -1.1966  0.1184
 1259UDC     C713845  11.263   4.891   5.069 -1.7436  0.4991 -0.0034
 1259UDC     C813846  11.311   5.034   5.028  0.2207 -1.4367 -0.3979
 1259UDC     C913847  11.413   5.077   4.917  0.5979  0.0659 -0.1086
 1259UDC    C1013848  11.380   5.196   4.828  1.0644  0.5108 -0.4615
 1259UDC    C1113849  11.484   5.248   4.731  0.3286  1.3392  0.7352
 1260UDC     C113850  18.773   1.705   0.947 -1.0052 -0.5791 -0.3789
 1260UDC     C213851  18.813   1.748   0.810 -0.6777 -0.7273 -0.7564
 1260UDC     C313852  18.719   1.825   0.711 -0.0243  0.0156  0.4943
 1260UDC     C413853  18.644   1.934   0.775  0.6708 -0.9487  0.1632
 1260UDC     C513854  18.515   1.970   0.704  0.1958 -0.4411 -0.3930
 1260UDC     C613855  18.424   2.059   0.787 -0.6208  1.0627 -0.0821
 1260UDC     C713856  18.276   2.077   0.744 -0.1920  0.1594 -0.5877
 1260UDC     C813857  18.192   1.961   0.704  0.2733  0.2014  0.0743
 1260UDC     C913858  18.049   1.999   0.706 -0.4699 -0.3490 -1.0716
 1260UDC    C1013859  17.943   1.907   0.647 -0.3815  0.1847  0.2951
 1260UDC    C1113860  17.811   1.972   0.687  0.3258 -0.5116  0.4095
 1261UDC     C113861   1.708  18.143   7.340 -0.6939 -0.8169  0.7605
 1261UDC     C213862   1.858  18.140   7.302 -0.2934 -0.3231  1.4447
 1261UDC     C313863   1.965  18.225   7.372 -0.1505 -0.6409 -0.9100
 1261UDC     C413864   2.109  18.181   7.334  0.1346 -0.0656  0.5495
 1261UDC     C513865   2.233  18.253   7.394 -0.9591 -0.0660 -0.9943
 1261UDC     C613866   2.368  18.182   7.363 -0.0314  1.5404 -0.0618
 1261UDC     C713867   2.431  18.087   7.471 -0.6109  1.2605  0.3343
 1261UDC     C813868   2.556  18.017   7.416  0.1387  0.0084 -0.1781
 1261UDC     C913869   2.651  17.953   7.525  0.2046 -0.0922  0.8484
 1261UDC    C1013870   2.757  17.843   7.477  0.2857  0.1642  0.8511
 1261UDC    C1113871   2.706  17.705   7.426 -0.8866 -0.4549 -0.1233
 1262UDC     C113872   1.078   7.013  16.400 -1.0328  0.0302 -0.4649
 1262UDC     C213873   1.141   7.123  16.310  0.0585 -0.7017  0.9819
 1262UDC     C313874   1.291   7.105  16.284  1.0619  0.2462  0.9866
 1262UDC     C413875   1.367   7.239  16.312 -1.0943  1.3292  0.0613
 1262UDC     C513876   1.341   7.347  16.209  0.3039 -0.8591  0.3815
 1262UDC     C613877   1.367   7.299  16.064  0.5622 -0.5383  0.1603
 1262UDC     C713878   1.307   7.401  15.959 -1.0393 -0.5362 -0.2451
 1262UDC     C813879   1.323   7.372  15.813 -0.0081 -0.3895  0.5399
 1262UDC     C913880   1.247   7.472  15.731 -0.5622  1.0104  0.2199
 1262UDC    C1013881   1.233   7.425  15.586 -0.4501  0.2923  0.4924
 1262UDC    C1113882   1.379   7.423  15.535  0.5113  0.3207 -0.7678
 1263UDC     C113883   3.182  15.105  10.678 -1.0706 -0.0163 -0.7608
 1263UDC     C213884   3.098  14.985  10.752  0.8001 -0.0448  0.1516
 1263UDC     C313885   3.117  14.975  10.902  0.0987  0.0854  0.1446
 1263UDC     C413886   3.219  14.875  10.955  1.1063  0.4668 -0.3115
 1263UDC     C513887   3.372  14.906  10.943  0.9976 -0.4005 -0.5607
 1263UDC     C613888   3.423  15.009  11.046  0.3991 -0.1874  1.3912
 1263UDC     C713889   3.536  15.088  10.997 -1.1581  0.1780 -0.7509
 1263UDC     C813890   3.631  15.011  10.913 -0.1590  0.0093  1.0254
 1263UDC     C913891   3.770  14.999  10.975  2.1566 -0.1935 -0.6158
 1263UDC    C1013892   3.845  15.132  10.941  0.4162 -0.0677  0.2181
 1263UDC    C1113893   3.993  15.131  10.981  0.2175 -0.4182  0.0089
 1264UDC     C113894  19.439   2.099  13.542  0.8491 -0.2189  0.1005
 1264UDC     C213895  19.355   2.221  13.572  1.1537 -0.2492 -0.2278
 1264UDC     C313896  19.359   2.267  13.716  0.1979 -0.7016 -0.2191
 1264UDC     C413897  19.305   2.414  13.729 -0.5353  0.3839 -0.2077
 1264UDC     C513898  19.307   2.439  13.883 -1.4223 -0.1659  0.0899
 1264UDC     C613899  19.228   2.545  13.955 -0.4011 -0.0539  0.4298
 1264UDC     C713900  19.248   2.569  14.104  0.8291  0.2011  0.0576
 1264UDC     C813901  19.141   2.655  14.169  0.1849 -0.0452 -0.0253
 1264UDC     C913902  19.158   2.689  14.319  0.1650  0.5315  0.0061
 1264UDC    C1013903  19.233   2.826  14.341  1.3850  0.0242  0.2539
 1264UDC    C1113904  19.272   2.876  14.485  0.4956 -0.0440  0.2361
 1265UDC     C113905   4.466  16.664  10.610  0.5060  0.4861  0.1842
 1265UDC     C213906   4.363  16.720  10.714 -0.4461  0.3872  0.0987
 1265UDC     C313907   4.231  16.771  10.658 -0.3101  0.6074 -0.4037
 1265UDC     C413908   4.132  16.808  10.769  0.4296 -0.2446 -0.0626
 1265UDC     C513909   3.999  16.842  10.702 -0.4910  0.5545  1.6021
 1265UDC     C613910   3.862  16.854  10.783 -1.6540 -0.2095  0.9572
 1265UDC     C713911   3.738  16.915  10.728 -0.0948 -0.3734  0.3222
 1265UDC     C813912   3.738  17.071  10.720 -0.1276 -0.0489  0.2667
 1265UDC     C913913   3.751  17.122  10.858  0.8882 -0.2932 -0.7646
 1265UDC    C1013914   3.886  17.155  10.921  0.0718  0.0515 -0.4455
 1265UDC    C1113915   3.842  17.187  11.068 -0.0437  0.2508 -0.1717
 1266UDC     C113916  11.563   7.407  12.009  0.6062 -0.5496  1.0815
 1266UDC     C213917  11.709   7.416  11.969 -0.7007 -0.7593  0.1914
 1266UDC     C313918  11.754   7.335  11.847  0.1935  0.7420  0.4461
 1266UDC     C413919  11.910   7.343  11.815 -0.5551  0.4617 -0.4934
 1266UDC     C513920  11.947   7.246  11.696 -0.2419  0.6979 -0.3038
 1266UDC     C613921  11.913   7.107  11.740  0.3618 -0.0549 -0.0178
 1266UDC     C713922  11.956   6.983  11.667  0.0494  0.4899  0.9809
 1266UDC     C813923  12.111   6.988  11.655  0.2955 -1.4068  0.7007
 1266UDC     C913924  12.161   6.873  11.576 -1.0613  1.1810 -0.2832
 1266UDC    C1013925  12.139   6.890  11.424  0.0214 -0.0936 -0.0211
 1266UDC    C1113926  12.224   6.792  11.330  0.4939  0.9950 -0.5077
 1267UDC     C113927  19.971   2.356   3.212  0.6456 -0.1376  0.2537
 1267UDC     C213928  19.890   2.482   3.252 -0.2327 -0.3301 -0.8431
 1267UDC     C313929  19.790   2.536   3.151 -0.1381 -0.1578  0.5298
 1267UDC     C413930  19.657   2.457   3.148  0.5652 -0.3823  0.4703
 1267UDC     C513931  19.581   2.490   3.022 -0.2870 -0.3136 -1.3796
 1267UDC     C613932  19.501   2.370   2.986 -0.1340 -0.3057  1.2952
 1267UDC     C713933  19.599   2.277   2.919 -0.4062 -0.2321 -0.6007
 1267UDC     C813934  19.661   2.330   2.788  0.0559 -0.0768  1.1827
 1267UDC     C913935  19.812   2.354   2.780  0.3536  0.2184  0.9524
 1267UDC    C1013936  19.879   2.327   2.640 -0.3405 -0.2207 -0.5955
 1267UDC    C1113937  20.021   2.295   2.682 -0.1452 -0.4187  0.4369
 1268UDC     C113938  16.610   1.409   8.322  0.6155 -0.7201 -0.1024
 1268UDC     C213939  16.517   1.518   8.384 -0.0930 -0.3461  0.1556
 1268UDC     C313940  16.366   1.497   8.355  0.9717 -0.0528 -0.7427
 1268UDC     C413941  16.276   1.617   8.409  0.4549  0.8369  1.1127
 1268UDC     C513942  16.124   1.598   8.368 -0.1090  0.0686  0.6118
 1268UDC     C613943  16.027   1.693   8.445  0.0339  0.7211  0.6630
 1268UDC     C713944  15.877   1.700   8.411  0.3941  0.3764 -0.5925
 1268UDC     C813945  15.780   1.593   8.457  0.8209  0.7736 -0.1846
 1268UDC     C913946  15.806   1.583   8.608  0.0450  0.6420  0.0562
 1268UDC    C1013947  15.701   1.497   8.682  0.2658  0.2316  0.4396
 1268UDC    C1113948  15.749   1.404   8.786 -0.9617  0.1719  0.0012
 1269UDC     C113949  13.535   1.479  16.575  1.1042 -0.7324  0.3161
 1269UDC     C213950  13.666   1.526  16.628 -1.1493 -0.2142 -1.2449
 1269UDC     C313951  13.652   1.586  16.769 -0.1627  0.9473 -0.1826
 1269UDC     C413952  13.667   1.742  16.760 -0.2042 -0.2523 -0.7922
 1269UDC     C513953  13.540   1.819  16.730  0.6002  0.0211 -0.2645
 1269UDC     C613954  13.571   1.960  16.710 -0.1959 -0.2855 -1.3577
 1269UDC     C713955  13.440   2.035  16.686 -0.6898  0.1619  0.3828
 1269UDC     C813956  13.428   2.194  16.674 -0.1806  0.1983 -0.9840
 1269UDC     C913957  13.439   2.263  16.812  0.4270  0.3460 -0.2683
 1269UDC    C1013958  13.314   2.235  16.889  1.0108  0.2319  0.2375
 1269UDC    C1113959  13.244   2.347  16.975  0.0176  0.2408 -0.1511
 1270UDC     C113960   3.987   8.868  13.977 -0.0655  1.1424 -0.6241
 1270UDC     C213961   4.131   8.833  14.018  0.1489  0.6999 -0.3238
 1270UDC     C313962   4.229   8.836  13.903  0.1875  1.7623  0.5947
 1270UDC     C413963   4.375   8.792  13.927 -1.3519 -0.9961  0.2656
 1270UDC     C513964   4.367   8.656  13.992 -0.3005  0.2861  0.1422
 1270UDC     C613965   4.490   8.628  14.079 -0.5835  0.5215  0.0278
 1270UDC     C713966   4.616   8.604  13.995 -0.5175  0.5680  0.0361
 1270UDC     C813967   4.592   8.471  13.915  0.2827 -0.3923 -0.8434
 1270UDC     C913968   4.723   8.420  13.849 -0.8209  0.2873  0.4856
 1270UDC    C1013969   4.703   8.295  13.760 -0.1067  0.5180 -0.9466
 1270UDC    C1113970   4.819   8.258  13.666  0.6003 -0.5060  0.2544
 1271UDC     C113971   0.408   2.407   3.530 -0.1238 -0.2822  0.3509
 1271UDC     C213972   0.424   2.458   3.388 -0.6202 -0.1051  0.0157
 1271UDC     C313973   0.305   2.404   3.305 -0.6374  0.3028 -0.2904
 1271UDC     C413974   0.321   2.252   3.293  0.6516  0.1199 -0.0281
 1271UDC     C513975   0.418   2.200   3.188  0.1305  0.0270 -0.5820
 1271UDC     C613976   0.417   2.050   3.210  0.0797 -1.0448 -0.2018
 1271UDC     C713977   0.539   1.970   3.153  0.1976  0.2842  0.6177
 1271UDC     C813978   0.497   1.820   3.123 -0.8957  1.1230 -0.5463
 1271UDC     C913979   0.601   1.748   3.040  1.2377  1.0452  0.5022
 1271UDC    C1013980   0.740   1.750   3.112 -0.2896 -0.0935 -0.1361
 1271UDC    C1113981   0.850   1.692   3.027 -0.4610  0.1722  0.1563
 1272UDC     C113982   3.512  13.267   4.219 -1.3518  0.0793  0.7502
 1272UDC     C213983   3.622  13.297   4.118  0.4786 -0.1952 -0.9401
 1272UDC     C313984   3.608  13.203   3.998 -0.3370 -0.6131 -0.4095
 1272UDC     C413985   3.539  13.068   4.027 -0.6618 -0.1889 -0.2393
 1272UDC     C513986   3.495  12.982   3.911  0.5568 -0.0563  0.0893
 1272UDC     C613987   3.375  12.877   3.916 -0.4206  0.2603  0.2756
 1272UDC     C713988   3.359  12.806   3.780 -0.3280  0.3458  0.4803
 1272UDC     C813989   3.231  12.707   3.780 -0.0023  0.7040  1.1863
 1272UDC     C913990   3.192  12.649   3.639 -0.6494  0.1843  0.5461
 1272UDC    C1013991   3.170  12.744   3.520  0.2797  0.8387 -0.6737
 1272UDC    C1113992   3.139  12.658   3.405 -0.1854 -0.2463 -0.1960
 1273UDC     C113993   5.917  11.137  14.184 -0.2643 -0.8136 -0.1936
 1273UDC     C213994   5.773  11.103  14.174  0.7283 -0.6463  0.3315
 1273UDC     C313995   5.685  11.218  14.213  1.0892 -1.2202 -0.5174
 1273UDC     C413996   5.560  11.208  14.135  0.9121  0.1623  0.1619
 1273UDC     C513997   5.469  11.323  14.165 -0.6818  0.4093  0.0766
 1273UDC     C613998   5.523  11.467  14.133 -0.2463  0.3186 -0.2655
 1273UDC     C713999   5.432  11.583  14.178 -0.1629 -0.2674  0.8437
 1273UDC     C814000   5.417  11.685  14.053  0.5552  0.7570  0.2832
 1273UDC     C914001   5.330  11.640  13.940 -0.5034 -0.4234  0.2880
 1273UDC    C1014002   5.193  11.594  13.999  0.4658 -0.7057  0.3634
 1273UDC    C1114003   5.087  11.610  13.889 -0.7132  0.8961  0.5124
 1274UDC     C114004  14.923   6.714  10.323 -1.0131  0.0886 -0.0636
 1274UDC     C214005  15.062   6.789  10.303 -0.3800 -1.6473 -0.3606
 1274UDC     C314006  15.181   6.719  10.235 -0.1335  0.1816 -0.6101
 1274UDC     C414007  15.277   6.658  10.338  0.6530  0.6035 -0.3695
 1274UDC     C514008  15.324   6.760  10.440 -0.5517  0.8249 -0.4799
 1274UDC     C614009  15.301   6.712  10.583  0.6939  0.7597 -0.9153
 1274UDC     C714010  15.387   6.783  10.692  0.6001 -0.4613  0.0687
 1274UDC     C814011  15.361   6.938  10.691  0.4455  0.0558 -0.3712
 1274UDC     C914012  15.437   7.013  10.804  0.3558  0.4380  0.9602
 1274UDC    C1014013  15.403   7.151  10.851  0.3026  0.3458 -0.4864
 1274UDC    C1114014  15.503   7.212  10.938 -0.6376  0.2891 -0.9457
 1275UDC     C114015   4.683  11.066   6.319  0.4179 -0.4418 -0.1399
 1275UDC     C214016   4.646  10.958   6.424  0.5388 -0.5630  0.8255
 1275UDC     C314017   4.562  10.845   6.354 -0.9452 -1.5160  0.6605
 1275UDC     C414018   4.613  10.770   6.227  0.3245  0.0133 -0.9054
 1275UDC     C514019   4.528  10.647   6.214  0.9404 -0.1073  1.8602
 1275UDC     C614020   4.584  10.550   6.117 -0.1427  0.2335  0.9027
 1275UDC     C714021   4.482  10.439   6.092 -0.4101 -0.2818  0.0463
 1275UDC     C814022   4.513  10.295   6.137  0.6939 -0.0265  1.1551
 1275UDC     C914023   4.644  10.234   6.084 -0.6131 -0.7117 -0.6252
 1275UDC    C1014024   4.665  10.085   6.113  0.1156  0.5464 -0.0396
 1275UDC    C1114025   4.560   9.993   6.041 -0.0948  0.2715 -0.5120
 1276UDC     C114026  18.970   2.191   9.641 -1.1905  0.3314 -0.0845
 1276UDC     C214027  19.061   2.069   9.618  0.2152 -0.1253 -0.4749
 1276UDC     C314028  19.175   2.110   9.529  0.3565 -0.2069 -0.9433
 1276UDC     C414029  19.247   2.010   9.432 -0.4233 -1.3721 -0.9065
 1276UDC     C514030  19.303   2.092   9.322  0.6554 -0.2512 -0.6895
 1276UDC     C614031  19.360   2.009   9.208  0.5214  0.0774 -0.4754
 1276UDC     C714032  19.444   2.092   9.106  0.9609  1.3878 -0.4669
 1276UDC     C814033  19.349   2.186   9.023 -0.4472 -0.4417 -1.3977
 1276UDC     C914034  19.401   2.321   8.991 -0.7305  0.0354 -0.6859
 1276UDC    C1014035  19.502   2.307   8.874  0.9402 -0.0262 -0.0393
 1276UDC    C1114036  19.603   2.424   8.864  0.8919  0.4184  0.8517
 1277UDC     C114037  13.697  13.788  11.786 -0.2335  0.7410 -0.4056
 1277UDC     C214038  13.786  13.801  11.666 -0.0008 -0.0263  0.6144
 1277UDC     C314039  13.857  13.940  11.683 -0.1169  0.1754 -0.3734
 1277UDC     C414040  13.950  13.984  11.570  0.0134 -1.1346  0.5964
 1277UDC     C514041  13.911  13.924  11.432 -0.1948  0.8940 -0.2988
 1277UDC     C614042  13.772  13.987  11.403 -0.1250 -0.5353  0.2498
 1277UDC     C714043  13.686  13.935  11.289 -0.0322  0.4102 -0.5654
 1277UDC     C814044  13.709  14.029  11.167  0.3358 -0.2755  0.9973
 1277UDC     C914045  13.602  14.138  11.159 -0.4060  0.0099 -0.2684
 1277UDC    C1014046  13.623  14.224  11.035 -0.9262 -1.1507  0.4865
 1277UDC    C1114047  13.527  14.349  11.031 -0.1897  0.5522  0.0848
 1278UDC     C114048  11.193   8.980  15.932 -1.1011  0.4773 -0.5212
 1278UDC     C214049  11.266   8.916  16.055  0.7206  0.6848 -0.0090
 1278UDC     C314050  11.414   8.948  16.057  0.0356 -0.6987 -0.6049
 1278UDC     C414051  11.444   9.091  16.005  0.8966 -0.0132  0.3073
 1278UDC     C514052  11.592   9.123  16.005  0.7225 -1.0605 -1.0165
 1278UDC     C614053  11.634   9.255  15.935  0.0976 -0.2855  0.1370
 1278UDC     C714054  11.780   9.285  15.987 -0.8241 -0.2966 -0.2441
 1278UDC     C814055  11.838   9.420  15.933 -0.0714 -0.3574  0.6763
 1278UDC     C914056  11.871   9.416  15.781 -0.7337 -0.3910 -1.3804
 1278UDC    C1014057  11.897   9.562  15.754  0.6793 -0.4339 -0.0772
 1278UDC    C1114058  11.778   9.656  15.721  0.1059 -0.1674  0.1768
 1279UDC     C114059  14.702  14.118  11.828 -0.2352  0.0600  1.0341
 1279UDC     C214060  14.673  14.012  11.715 -0.1119  0.7630  0.4794
 1279UDC     C314061  14.570  14.050  11.603  0.0891  0.6703 -0.4574
 1279UDC     C414062  14.548  13.937  11.505  0.3377  0.8106  1.7578
 1279UDC     C514063  14.484  13.815  11.565  0.2478  0.4267  0.6257
 1279UDC     C614064  14.442  13.702  11.477 -0.3047 -0.5286  0.9187
 1279UDC     C714065  14.390  13.572  11.546  0.0003 -0.5559 -0.8131
 1279UDC     C814066  14.295  13.613  11.665 -0.1089 -0.5881 -0.5436
 1279UDC     C914067  14.262  13.488  11.733  0.3578 -0.1679  1.1589
 1279UDC    C1014068  14.107  13.494  11.765  0.7498 -0.4862 -0.4169
 1279UDC    C1114069  14.067  13.594  11.877  0.1555  0.0927  0.1622
 1280UDC     C114070   9.264   3.818   6.801  0.2469  0.0663  0.6061
 1280UDC     C214071   9.194   3.957   6.788 -0.7789  0.3149  0.5318
 1280UDC     C314072   9.166   3.993   6.639  0.4786 -0.1260 -0.0031
 1280UDC     C414073   9.158   4.145   6.619 -0.5857  0.9941 -0.4021
 1280UDC     C514074   9.163   4.183   6.471 -0.2003 -0.2396  0.1777
 1280UDC     C614075   9.026   4.143   6.424 -0.0856 -0.6481  0.5514
 1280UDC     C714076   8.990   4.184   6.281 -0.3297 -0.0321 -0.6405
 1280UDC     C814077   9.063   4.102   6.183 -0.4547  0.3237  0.0903
 1280UDC     C914078   9.013   4.113   6.040  1.3174 -0.6294  0.2975
 1280UDC    C1014079   9.111   4.044   5.935  0.5077  0.1152 -0.0412
 1280UDC    C1114080   9.086   4.105   5.797 -0.8723  0.2476 -0.0503
 1281UDC     C114081  15.579  12.108  16.014 -0.4483 -0.4021  0.5067
 1281UDC     C214082  15.679  12.002  15.949  0.9344  0.2182  0.3079
 1281UDC     C314083  15.806  12.070  15.887  0.4671  0.1840 -0.7208
 1281UDC     C414084  15.874  11.989  15.786  0.3932  1.4426 -0.2755
 1281UDC     C514085  15.875  12.054  15.649  1.0698  0.6757  0.3532
 1281UDC     C614086  15.978  12.162  15.616 -1.4214 -0.3987 -1.1242
 1281UDC     C714087  16.088  12.104  15.522  0.6330 -1.0183 -1.0336
 1281UDC     C814088  16.216  12.181  15.525  0.7716 -0.4658  0.7614
 1281UDC     C914089  16.294  12.177  15.392 -0.7714 -0.0541  0.2473
 1281UDC    C1014090  16.371  12.044  15.382  0.1681  0.2121 -0.5597
 1281UDC    C1114091  16.463  12.060  15.260 -0.2430  0.2155 -0.3333
 1282UDC     C114092   6.704  18.127   1.089 -0.5409  0.7295  0.9031
 1282UDC     C214093   6.606  18.065   1.188 -0.2819 -0.0886 -0.2297
 1282UDC     C314094   6.596  18.158   1.313 -0.0113 -0.7788 -1.0850
 1282UDC     C414095   6.458  18.140   1.380 -0.4552  0.1221  1.1765
 1282UDC     C514096   6.347  18.193   1.279 -0.0956  0.4351 -0.1961
 1282UDC     C614097   6.308  18.343   1.320  0.4880 -0.0104 -0.2039
 1282UDC     C714098   6.297  18.427   1.192 -1.2410 -0.4202 -0.9908
 1282UDC     C814099   6.302  18.580   1.196  0.5186 -0.1005 -1.4109
 1282UDC     C914100   6.384  18.650   1.086 -0.9109 -0.8469 -1.1469
 1282UDC    C1014101   6.536  18.600   1.099  0.1992 -0.6061  0.6203
 1282UDC    C1114102   6.553  18.495   0.982  0.0355  0.8987 -1.0298
 1283UDC     C114103  15.018  11.717  12.649 -1.8040 -0.3693 -0.5950
 1283UDC     C214104  15.148  11.712  12.576 -0.3411 -1.4616  0.1283
 1283UDC     C314105  15.246  11.611  12.637 -0.8494  0.8077 -0.5972
 1283UDC     C414106  15.171  11.473  12.626 -0.1277  0.6827  0.0681
 1283UDC     C514107  15.244  11.341  12.679  0.2941  0.3240 -0.8912
 1283UDC     C614108  15.140  11.234  12.734 -0.0782  0.4701  0.4859
 1283UDC     C714109  15.203  11.099  12.742  0.3061  0.5829 -1.1510
 1283UDC     C814110  15.109  10.980  12.775 -0.2383 -0.0886  0.6232
 1283UDC     C914111  15.197  10.856  12.792  0.2167 -0.1704 -0.1864
 1283UDC    C1014112  15.224  10.847  12.939 -1.3229  0.0389 -0.6183
 1283UDC    C1114113  15.373  10.846  12.984 -0.6371  0.8334 -0.1020
 1284UDC     C114114  16.307   9.250   3.657  1.1712 -0.2759 -0.7844
 1284UDC     C214115  16.290   9.190   3.518  0.7909  0.4200  0.1594
 1284UDC     C314116  16.406   9.137   3.446 -0.1345 -0.4341  0.8064
 1284UDC     C414117  16.382   9.101   3.297 -0.6300 -0.4406  0.8093
 1284UDC     C514118  16.260   9.010   3.278  0.4545  0.7903  0.6630
 1284UDC     C614119  16.255   8.864   3.313  1.0227 -0.0528  0.0902
 1284UDC     C714120  16.126   8.786   3.278  0.6111  0.9229 -0.3217
 1284UDC     C814121  16.118   8.633   3.267 -1.8380 -0.1731 -1.2174
 1284UDC     C914122  15.980   8.610   3.206 -0.1633 -0.0760  0.1416
 1284UDC    C1014123  15.966   8.619   3.056 -0.5805 -0.3474  0.8067
 1284UDC    C1114124  15.843   8.555   3.017  0.4855  0.5398  0.0715
 1285UDC     C114125   5.231  17.827   7.162 -0.7853  0.0638 -0.3063
 1285UDC     C214126   5.179  17.878   7.029  0.0402  0.3109  0.0293
 1285UDC     C314127   5.244  17.804   6.904  1.0161  0.4640 -0.1422
 1285UDC     C414128   5.177  17.888   6.783 -0.2205  0.7131 -0.9150
 1285UDC     C514129   5.237  18.023   6.780  0.1179 -0.3030 -0.9094
 1285UDC     C614130   5.355  18.051   6.687 -0.9352 -0.4277  0.4259
 1285UDC     C714131   5.390  18.200   6.690  1.4179 -0.2326 -0.0958
 1285UDC     C814132   5.475  18.235   6.567  0.2017 -0.8142  0.6994
 1285UDC     C914133   5.609  18.160   6.562 -1.1236 -0.4626  0.7681
 1285UDC    C1014134   5.693  18.208   6.439  1.3884  0.3064  0.7448
 1285UDC    C1114135   5.843  18.182   6.462  0.0458 -0.5804  0.9222
 1286UDC     C114136   3.993   7.269   0.777  0.1373  0.2770  0.2289
 1286UDC     C214137   4.012   7.355   0.897 -0.2146 -0.2083 -0.1624
 1286UDC     C314138   4.124   7.309   0.987  0.4585  1.4622  1.0274
 1286UDC     C414139   4.123   7.155   1.024 -0.9493  0.0301  0.2236
 1286UDC     C514140   4.173   7.122   1.164 -0.5678  1.6244  0.4747
 1286UDC     C614141   4.319   7.155   1.181 -0.5906  0.6403 -0.5112
 1286UDC     C714142   4.390   7.099   1.297 -0.0538  0.7527  0.5414
 1286UDC     C814143   4.351   6.950   1.333  0.1300 -1.3694  0.6806
 1286UDC     C914144   4.370   6.937   1.483  0.0772  0.4508 -0.0791
 1286UDC    C1014145   4.237   6.918   1.561  0.7232  0.0319  0.5891
 1286UDC    C1114146   4.252   6.902   1.714 -1.0824  0.7575  0.1862
 1287UDC     C114147   1.810  13.999   4.316  1.0365 -0.8617  0.2267
 1287UDC     C214148   1.904  14.064   4.418 -0.4487 -0.6112  0.7838
 1287UDC     C314149   2.053  14.089   4.371 -0.6271 -0.0876  0.2900
 1287UDC     C414150   2.044  14.148   4.223 -0.8513 -0.2966  0.2210
 1287UDC     C514151   2.179  14.178   4.159  0.3570 -0.4118 -0.0808
 1287UDC     C614152   2.269  14.281   4.229  0.2449 -0.6156  0.6856
 1287UDC     C714153   2.363  14.350   4.139  0.0083  0.7927  1.6321
 1287UDC     C814154   2.406  14.489   4.181  0.2756  1.4886 -0.4243
 1287UDC     C914155   2.511  14.554   4.084  0.4465 -0.5419  0.1931
 1287UDC    C1014156   2.608  14.660   4.139 -1.2188  0.1721 -0.6569
 1287UDC    C1114157   2.707  14.741   4.050  0.0408 -1.1554  0.1359
 1288UDC     C114158   3.658   3.725   9.139 -0.6986  0.4039 -0.1959
 1288UDC     C214159   3.558   3.739   9.021 -0.4900 -0.8011 -0.1441
 1288UDC     C314160   3.523   3.884   9.000  0.2841  0.6910 -1.3324
 1288UDC     C414161   3.413   3.906   8.893  0.0453 -0.3196 -0.6329
 1288UDC     C514162   3.470   3.889   8.751 -0.5593  0.2567  0.5398
 1288UDC     C614163   3.417   4.009   8.673 -0.2495 -0.2731 -0.9652
 1288UDC     C714164   3.479   3.994   8.532 -0.3796 -0.6263 -1.4628
 1288UDC     C814165   3.410   4.098   8.443  0.2680 -0.8115 -0.7521
 1288UDC     C914166   3.431   4.091   8.292 -0.7164  0.1681 -0.1848
 1288UDC    C1014167   3.383   4.197   8.196 -0.0226 -0.5239 -0.7267
 1288UDC    C1114168   3.470   4.212   8.079 -0.6418  0.2558  0.3969
 1289UDC     C114169  18.630  17.848   1.106 -0.0056 -0.3745 -0.0064
 1289UDC     C214170  18.688  17.951   1.002 -0.3547  0.4836 -0.4934
 1289UDC     C314171  18.821  17.896   0.946 -0.3606  0.4767 -0.6100
 1289UDC     C414172  18.936  17.936   1.042 -0.0421 -0.3549  0.6642
 1289UDC     C514173  19.040  18.025   0.974  0.2919  0.2131  0.6569
 1289UDC     C614174  18.978  18.159   0.930 -0.3318  0.6796  0.0954
 1289UDC     C714175  19.061  18.255   0.847 -0.0131  0.6056 -0.0493
 1289UDC     C814176  19.102  18.198   0.710  0.8259 -0.3130  1.3823
 1289UDC     C914177  19.147  18.311   0.618 -0.1097 -0.5197 -0.5887
 1289UDC    C1014178  19.117  18.273   0.472 -1.2408  0.7113  0.0194
 1289UDC    C1114179  19.136  18.376   0.353 -0.3803  0.1727 -0.4262
 1290UDC     C114180  15.611  13.479  12.513 -1.0888 -0.0491  1.0561
 1290UDC     C214181  15.717  13.470  12.626 -0.0585  1.5161  0.3849
 1290UDC     C314182  15.779  13.610  12.633 -0.1150  0.7471  0.3221
 1290UDC     C414183  15.862  13.649  12.506 -0.8035 -1.5398  0.2013
 1290UDC     C514184  15.925  13.791  12.507  0.2715 -1.4464 -1.0714
 1290UDC     C614185  16.021  13.826  12.383 -0.0311 -0.3611  0.3077
 1290UDC     C714186  16.159  13.762  12.396 -0.0746  0.6654  0.1089
 1290UDC     C814187  16.273  13.799  12.300 -0.7059 -0.0874  0.0439
 1290UDC     C914188  16.259  13.733  12.158  0.6732 -0.0366 -0.3464
 1290UDC    C1014189  16.248  13.583  12.154 -1.0392  0.1244 -0.0087
 1290UDC    C1114190  16.381  13.523  12.194 -0.0904 -0.2556  0.0265
 1291UDC     C114191  11.681  10.734   1.541 -0.0053 -0.3998 -0.1267
 1291UDC     C214192  11.713  10.599   1.476  0.3639  0.7044 -0.0641
 1291UDC     C314193  11.633  10.475   1.516 -1.3423  0.2654 -0.4844
 1291UDC     C414194  11.692  10.357   1.443 -0.1862  0.2755  0.0900
 1291UDC     C514195  11.834  10.324   1.444 -0.5241  0.9299 -0.2343
 1291UDC     C614196  11.902  10.296   1.310  0.1559  0.1767 -0.8457
 1291UDC     C714197  12.038  10.238   1.319  0.3701 -0.3741  0.0415
 1291UDC     C814198  12.126  10.352   1.358 -0.9599 -0.4457 -1.1911
 1291UDC     C914199  12.278  10.315   1.354 -0.5547 -0.0160  0.1564
 1291UDC    C1014200  12.368  10.435   1.391 -0.8151  0.5018 -0.7103
 1291UDC    C1114201  12.408  10.520   1.270  1.0916  0.1144  0.1730
 1292UDC     C114202   8.691  10.396   2.163  0.6696  0.5902  0.7800
 1292UDC     C214203   8.546  10.403   2.215  0.3877 -0.3448 -0.6814
 1292UDC     C314204   8.489  10.530   2.292 -0.5319  0.5178 -0.4360
 1292UDC     C414205   8.340  10.518   2.309  0.1381  0.0765 -0.1748
 1292UDC     C514206   8.288  10.629   2.404 -1.6375 -0.1237 -0.3184
 1292UDC     C614207   8.326  10.773   2.387 -0.7258 -0.0347  0.4133
 1292UDC     C714208   8.294  10.856   2.517  0.4287  0.5658 -0.0408
 1292UDC     C814209   8.318  11.004   2.494  0.9078 -0.4353 -0.2219
 1292UDC     C914210   8.224  11.094   2.587 -0.4926  0.4294  0.4938
 1292UDC    C1014211   8.235  11.249   2.569  0.2853  0.3715  0.2419
 1292UDC    C1114212   8.379  11.300   2.598 -0.1738  0.5677 -0.1886
 1293UDC     C114213   4.024  12.518  10.000 -0.1054  0.1773 -1.8754
 1293UDC     C214214   3.893  12.435   9.983  0.3242 -0.1469  0.9178
 1293UDC     C314215   3.805  12.405  10.108  0.5085  0.7510  0.0200
 1293UDC     C414216   3.700  12.294  10.081  0.0686 -0.1237 -0.9494
 1293UDC     C514217   3.592  12.282  10.189 -1.1086  0.1998 -0.5086
 1293UDC     C614218   3.520  12.150  10.166  0.3564  1.4141 -0.9549
 1293UDC     C714219   3.453  12.154  10.025  0.7497  1.6806 -1.4684
 1293UDC     C814220   3.321  12.076  10.032  0.0431  0.5730 -0.2611
 1293UDC     C914221   3.255  12.037   9.897 -0.0815  0.0439  0.2067
 1293UDC    C1014222   3.223  12.149   9.797 -0.2596 -0.5122 -0.5593
 1293UDC    C1114223   3.127  12.070   9.707  0.0305 -0.5829 -0.0858
 1294UDC     C114224  14.844   6.268   2.150  1.5754  1.0005  1.4587
 1294UDC     C214225  14.867   6.375   2.255 -0.8808  0.9827 -0.1468
 1294UDC     C314226  14.969   6.485   2.202  1.2000 -0.1441  0.3259
 1294UDC     C414227  14.935   6.559   2.067  0.7198 -0.3772 -1.0549
 1294UDC     C514228  14.826   6.670   2.087  0.2479 -0.3011  0.1930
 1294UDC     C614229  14.775   6.736   1.962 -0.0790  0.0235 -0.4596
 1294UDC     C714230  14.732   6.884   1.973  0.8305 -0.3247  0.1927
 1294UDC     C814231  14.669   6.944   1.843  0.0823  0.6424 -0.6608
 1294UDC     C914232  14.622   7.084   1.863 -0.4426 -0.2157  0.0489
 1294UDC    C1014233  14.515   7.121   1.760  0.1946  0.6260  0.0538
 1294UDC    C1114234  14.408   7.009   1.790 -1.2812 -0.7747 -0.0714
 1295UDC     C114235  17.255   7.749  19.850  0.0262 -0.2156 -0.3208
 1295UDC     C214236  17.262   7.656  19.966 -0.3328 -0.9481  0.4294
 1295UDC     C314237  17.299   7.516  19.926 -0.3465  0.2824 -0.6761
 1295UDC     C414238  17.429   7.505  19.845 -0.3557 -0.4748  0.8610
 1295UDC     C514239  17.440   7.353  19.807 -0.2710  0.9179 -0.1984
 1295UDC     C614240  17.412   7.267  19.929 -0.2678 -0.6115 -0.0731
 1295UDC     C714241  17.327   7.148  19.905  1.0404 -0.1887  0.0067
 1295UDC     C814242  17.252   7.106  20.032  0.0475 -0.2225  0.7558
 1295UDC     C914243  17.169   7.220  20.101  0.4444  0.0866 -1.4709
 1295UDC    C1014244  17.123   7.176  20.245  1.0824 -0.4785  0.4892
 1295UDC    C1114245  16.972   7.132  20.267  0.3634  0.5829  0.1262
 1296UDC     C114246  11.095  16.202  11.821  0.2974  0.2560 -0.8456
 1296UDC     C214247  11.047  16.086  11.907 -0.2929  0.5519  0.0870
 1296UDC     C314248  10.910  16.053  11.858  0.6179 -0.5729 -0.4520
 1296UDC     C414249  10.861  15.928  11.938  0.2797  0.4710  0.5437
 1296UDC     C514250  10.705  15.895  11.932  0.0723 -0.1492  0.5421
 1296UDC     C614251  10.647  15.916  11.796  0.1889 -0.1685  0.7747
 1296UDC     C714252  10.518  15.842  11.771 -0.1024  0.5205 -0.3718
 1296UDC     C814253  10.421  15.796  11.883 -0.6558 -0.5205  0.0582
 1296UDC     C914254  10.316  15.700  11.836 -0.7514  0.0403 -0.4793
 1296UDC    C1014255  10.335  15.571  11.914 -0.5293 -0.2667  0.2055
 1296UDC    C1114256  10.387  15.586  12.056 -0.2021  0.6941 -0.4155
 1297UDC     C114257   5.424   0.632  11.731  1.1440 -0.3783  0.5112
 1297UDC     C214258   5.374   0.494  11.701 -0.5818  0.7605  0.3293
 1297UDC     C314259   5.230   0.487  11.649 -0.5100 -0.6209  0.0179
 1297UDC     C414260   5.185   0.400  11.528  0.6721 -0.2210 -0.4292
 1297UDC     C514261   5.050   0.454  11.471  0.7773  0.3584 -0.8354
 1297UDC     C614262   5.058   0.473  11.323  1.2697 -0.3557 -0.4076
 1297UDC     C714263   5.160   0.591  11.308  0.0995 -0.7249  0.4336
 1297UDC     C814264   5.091   0.715  11.378 -1.2484 -0.0998  0.5408
 1297UDC     C914265   5.199   0.833  11.385  0.4249  1.6403  1.2712
 1297UDC    C1014266   5.251   0.885  11.252  0.3352 -0.8308  1.1448
 1297UDC    C1114267   5.339   1.006  11.295  0.5994  0.9431 -0.3695
 1298UDC     C114268  11.479   0.390  17.721  0.9843  1.3346 -0.5411
 1298UDC     C214269  11.444   0.239  17.712  0.1078 -0.2779  0.1085
 1298UDC     C314270  11.399   0.201  17.575  0.6764  0.3067 -0.0885
 1298UDC     C414271  11.516   0.185  17.479  0.4404 -0.1817  0.1298
 1298UDC     C514272  11.503   0.149  17.324  0.4650 -0.3314  0.3605
 1298UDC     C614273  11.633   0.154  17.246  0.0074 -0.0132 -0.3752
 1298UDC     C714274  11.620   0.116  17.101 -0.2303  0.5916 -0.5684
 1298UDC     C814275  11.584  -0.035  17.087  0.5503  0.0974  0.6069
 1298UDC     C914276  11.673  -0.128  17.166  0.6410  0.0181 -0.2131
 1298UDC    C1014277  11.812  -0.155  17.104  0.6195 -0.1698 -0.2001
 1298UDC    C1114278  11.867  -0.290  17.140  0.8964 -0.7293 -0.5774
 1299UDC     C114279   9.281  14.721   0.045 -1.4417  0.3118  0.4701
 1299UDC     C214280   9.242  14.670  -0.090  0.1068  0.1621 -0.4103
 1299UDC     C314281   9.222  14.519  -0.094 -0.6030  0.0346 -0.6242
 1299UDC     C414282   9.086  14.489  -0.045  0.0632  0.0260 -0.6804
 1299UDC     C514283   8.976  14.504  -0.156 -0.8505 -1.3075 -0.0488
 1299UDC     C614284   8.838  14.547  -0.092  0.3153  0.0394  0.4466
 1299UDC     C714285   8.716  14.572  -0.193  0.2055  0.6050 -1.0298
 1299UDC     C814286   8.760  14.695  -0.277  0.9799 -0.0311  0.2375
 1299UDC     C914287   8.696  14.699  -0.417 -0.3989 -0.0542 -1.3170
 1299UDC    C1014288   8.559  14.766  -0.407 -0.1357 -0.0076 -0.8180
 1299UDC    C1114289   8.496  14.753  -0.551  0.1548 -0.0763 -1.7142
 1300UDC     C114290   0.359  12.281  12.030  0.0674 -0.9734  0.0723
 1300UDC     C214291   0.473  12.172  12.054 -0.0847 -0.2425  0.3825
 1300UDC     C314292   0.512  12.161  12.197  0.0095 -0.6496 -0.8572
 1300UDC     C414293   0.581  12.032  12.256 -0.1864 -0.6389  0.5129
 1300UDC     C514294   0.590  12.010  12.408 -0.2465 -0.2992 -0.2096
 1300UDC     C614295   0.679  11.886  12.439  0.3471 -0.2119  0.4411
 1300UDC     C714296   0.698  11.838  12.582 -0.4086  0.3887  0.8778
 1300UDC     C814297   0.780  11.705  12.601  0.3938  0.4465 -0.0613
 1300UDC     C914298   0.778  11.673  12.750  0.5916 -0.3732  0.1978
 1300UDC    C1014299   0.637  11.649  12.799  0.0420 -0.1728 -0.6796
 1300UDC    C1114300   0.601  11.612  12.941  0.6010  0.8697 -1.3834
 1301UDC     C114301   1.254  12.443   5.520  0.1073 -0.7937 -0.5106
 1301UDC     C214302   1.179  12.312   5.544  0.7222  1.0847  0.7424
 1301UDC     C314303   1.270  12.186   5.561  0.1162 -0.6582  0.0729
 1301UDC     C414304   1.342  12.142   5.431  0.4034  0.1029  0.2762
 1301UDC     C514305   1.417  12.006   5.453  0.1518  0.4447  0.0929
 1301UDC     C614306   1.339  11.898   5.521  0.2167  0.3178  0.2942
 1301UDC     C714307   1.445  11.812   5.595 -1.2859 -0.0130  0.0534
 1301UDC     C814308   1.551  11.723   5.527 -0.9470 -0.0958 -0.2418
 1301UDC     C914309   1.631  11.615   5.609 -1.0909 -0.8045 -0.0698
 1301UDC    C1014310   1.783  11.611   5.572  0.4875 -0.4615 -1.0551
 1301UDC    C1114311   1.848  11.701   5.680  0.5844 -0.1269  0.0174
 1302UDC     C114312   1.135  19.347   4.522  0.5136 -0.0078 -0.3252
 1302UDC     C214313   1.088  19.459   4.419 -1.0477  0.6202 -0.3645
 1302UDC     C314314   1.117  19.605   4.472  0.8002  0.2347  0.5726
 1302UDC     C414315   1.260  19.647   4.476 -0.6905 -0.0396  0.1651
 1302UDC     C514316   1.277  19.764   4.572  0.3714 -0.4694 -0.3215
 1302UDC     C614317   1.417  19.784   4.641  0.0846  0.9708  0.4698
 1302UDC     C714318   1.491  19.656   4.693 -0.0793 -0.0601 -0.0755
 1302UDC     C814319   1.623  19.708   4.754 -0.7845  0.0020 -0.1298
 1302UDC     C914320   1.729  19.776   4.666  0.8906 -0.2007 -0.2992
 1302UDC    C1014321   1.791  19.679   4.567  0.8870 -0.1047  0.4229
 1302UDC    C1114322   1.888  19.571   4.610 -0.0630  0.4798 -0.6041
 1303UDC     C114323  17.015   6.840  17.322  0.5133  0.1918  0.0066
 1303UDC     C214324  17.032   6.946  17.435 -1.2854 -0.1621  0.4038
 1303UDC     C314325  16.980   7.088  17.391  0.2043  0.0413 -1.3593
 1303UDC     C414326  17.009   7.222  17.464  0.0401 -0.5141  0.4194
 1303UDC     C514327  16.914   7.321  17.406 -0.1483  0.5558  0.1816
 1303UDC     C614328  16.938   7.372  17.262  0.1876  0.7646  0.6787
 1303UDC     C714329  16.807   7.428  17.209  0.1214  0.3591  0.3026
 1303UDC     C814330  16.797   7.469  17.062  0.3951  0.6785  0.4191
 1303UDC     C914331  16.646   7.467  17.003 -0.4900  0.1466  0.6013
 1303UDC    C1014332  16.659   7.404  16.860 -0.4560 -0.2403  0.3912
 1303UDC    C1114333  16.594   7.489  16.745  1.3023 -0.2713 -0.1755
 1304UDC     C114334   5.602   9.420   8.480 -0.1931  0.7343 -1.4449
 1304UDC     C214335   5.633   9.309   8.378  0.5128 -0.3978 -0.4169
 1304UDC     C314336   5.753   9.219   8.409 -0.4232 -0.8156  0.6219
 1304UDC     C414337   5.739   9.106   8.512 -0.8620  0.1325 -0.2291
 1304UDC     C514338   5.880   9.071   8.567 -0.1430 -0.3049 -0.2466
 1304UDC     C614339   5.868   8.952   8.665  0.4006  0.1221 -0.5815
 1304UDC     C714340   5.805   8.825   8.604 -0.6511  0.6387 -0.3034
 1304UDC     C814341   5.786   8.713   8.716 -1.0659 -0.3556 -0.0760
 1304UDC     C914342   5.673   8.620   8.700 -0.2623 -0.4905  0.6433
 1304UDC    C1014343   5.531   8.660   8.673 -0.1982 -0.3436 -0.4108
 1304UDC    C1114344   5.477   8.740   8.800 -0.6064  0.5077 -0.4071
 1305UDC     C114345  12.269  11.660  17.970 -1.2125 -0.7933  0.7265
 1305UDC     C214346  12.130  11.671  18.041 -0.3761  0.6417 -1.6051
 1305UDC     C314347  12.110  11.561  18.150  0.6417 -0.5582 -0.2098
 1305UDC     C414348  12.222  11.553  18.254 -0.5831  0.1330  0.2204
 1305UDC     C514349  12.228  11.436  18.353  1.0777  0.1793  1.1354
 1305UDC     C614350  12.208  11.314  18.264  0.0241  0.0869 -0.2348
 1305UDC     C714351  12.095  11.208  18.300 -0.0307 -1.1820  0.4229
 1305UDC     C814352  12.093  11.069  18.233 -0.0020 -0.4864  1.0174
 1305UDC     C914353  11.982  10.969  18.253  0.5390  0.3096 -0.2591
 1305UDC    C1014354  12.006  10.897  18.387  0.1247 -0.3155 -0.9240
 1305UDC    C1114355  12.158  10.873  18.408  0.0018 -0.4477 -0.3845
 1306UDC     C114356   1.590  10.675  12.986  0.6983 -0.3337 -0.0969
 1306UDC     C214357   1.692  10.794  12.999  0.8002  1.0919  0.1175
 1306UDC     C314358   1.640  10.906  13.087 -0.6374  0.2258  0.3217
 1306UDC     C414359   1.708  11.037  13.056 -0.0515 -0.0940  1.3681
 1306UDC     C514360   1.615  11.156  13.022  0.1589  0.3720 -0.3623
 1306UDC     C614361   1.540  11.140  12.882  0.6435 -0.1376 -0.6952
 1306UDC     C714362   1.410  11.220  12.855  0.4498 -0.0739  0.3437
 1306UDC     C814363   1.275  11.155  12.880 -0.2688  0.6622 -0.1135
 1306UDC     C914364   1.167  11.252  12.920 -0.0311 -0.5504  0.4977
 1306UDC    C1014365   1.210  11.332  13.046  0.6380  0.1721 -0.5365
 1306UDC    C1114366   1.206  11.237  13.167 -0.1202 -0.0881 -1.0195
 1307UDC     C114367   3.498  18.732   4.224 -0.5383 -0.0455  0.0336
 1307UDC     C214368   3.410  18.627   4.290 -0.3143  0.1332 -0.2748
 1307UDC     C314369   3.468  18.551   4.411 -0.3822  0.5029 -0.2721
 1307UDC     C414370   3.594  18.468   4.366 -0.2662  0.4745  0.4972
 1307UDC     C514371   3.648  18.381   4.484  0.1827  0.5218  0.1899
 1307UDC     C614372   3.766  18.287   4.445  0.0287 -0.4309 -0.1648
 1307UDC     C714373   3.719  18.169   4.347 -0.3711 -0.7535  0.0750
 1307UDC     C814374   3.833  18.084   4.299 -1.1832 -0.1415  0.3514
 1307UDC     C914375   3.904  18.161   4.187  0.0806 -0.4059  0.2442
 1307UDC    C1014376   3.990  18.065   4.099  0.0333 -0.9031 -0.3209
 1307UDC    C1114377   4.105  18.146   4.032 -0.4548  0.2899  0.4745
 1308UDC     C114378   8.966  14.778   1.982 -0.5016 -0.0331 -0.5596
 1308UDC     C214379   8.908  14.833   1.852 -0.7296 -0.1906 -1.0344
 1308UDC     C314380   8.796  14.941   1.882  0.5906 -0.2249 -0.4370
 1308UDC     C414381   8.824  15.068   1.969  0.2603  0.0838  0.1030
 1308UDC     C514382   8.927  15.162   1.901  0.2042 -0.5851  0.1856
 1308UDC     C614383   9.002  15.244   2.008  0.2729  0.4651  0.2858
 1308UDC     C714384   9.124  15.329   1.961  0.4704  0.7294  0.8371
 1308UDC     C814385   9.200  15.388   2.078 -0.3583 -0.4140 -0.0107
 1308UDC     C914386   9.096  15.475   2.145  0.2879 -0.0269 -0.1536
 1308UDC    C1014387   9.133  15.519   2.289  0.2635 -0.0237  0.0689
 1308UDC    C1114388   9.039  15.634   2.332 -0.6134 -0.2124 -0.2446
 1309UDC     C114389   0.331  18.967  16.201 -0.2103  0.1045 -0.2387
 1309UDC     C214390   0.368  18.986  16.351  0.0837 -0.3773  0.4587
 1309UDC     C314391   0.257  19.042  16.442  0.6563  0.7915  1.0188
 1309UDC     C414392   0.317  19.080  16.573 -0.2613 -0.3958 -0.3805
 1309UDC     C514393   0.297  19.022  16.714  0.3468 -0.1972 -0.4675
 1309UDC     C614394   0.412  19.039  16.816 -0.2613  0.8607  0.8794
 1309UDC     C714395   0.471  19.184  16.830  0.5020 -0.1000 -0.1024
 1309UDC     C814396   0.560  19.203  16.957  0.5704  0.5021  1.1422
 1309UDC     C914397   0.601  19.341  17.000  1.5487 -0.3334  0.5022
 1309UDC    C1014398   0.694  19.421  16.907  0.1863  0.4738 -0.6884
 1309UDC    C1114399   0.695  19.570  16.926 -0.0715 -0.2073 -0.4133
 1310UDC     C114400  17.775  18.240  14.829  0.3237  0.0114  0.0623
 1310UDC     C214401  17.837  18.376  14.867  0.3810 -0.1349  0.0685
 1310UDC     C314402  17.977  18.348  14.919 -0.2614 -1.3013 -0.0842
 1310UDC     C414403  18.033  18.459  15.017  0.9450 -0.1812  0.1563
 1310UDC     C514404  18.155  18.414  15.082 -0.5374  0.4471  0.5203
 1310UDC     C614405  18.134  18.283  15.171  0.0483 -0.1688 -0.0154
 1310UDC     C714406  18.278  18.228  15.178 -0.4083  0.3209  0.5057
 1310UDC     C814407  18.394  18.317  15.214  0.7250 -0.1441  0.4193
 1310UDC     C914408  18.453  18.297  15.350 -2.1941 -0.7499 -0.4712
 1310UDC    C1014409  18.580  18.386  15.386 -0.8781  0.0027 -1.7104
 1310UDC    C1114410  18.706  18.316  15.336  0.0895 -0.5235  0.0435
 1311UDC     C114411   1.843  11.489   2.507  0.9235 -0.0996 -0.0963
 1311UDC     C214412   1.823  11.399   2.632 -0.0680 -0.0783 -0.8614
 1311UDC     C314413   1.767  11.261   2.601  0.2873 -0.3802 -0.1030
 1311UDC     C414414   1.853  11.170   2.520 -0.2256 -0.4524  0.6261
 1311UDC     C514415   1.769  11.070   2.437  0.4398 -0.5751  0.3343
 1311UDC     C614416   1.830  10.997   2.320 -0.2928  1.0677 -0.1441
 1311UDC     C714417   1.739  10.973   2.202 -0.8062  0.7686  0.5414
 1311UDC     C814418   1.821  10.908   2.092 -0.9602 -0.4994 -0.4300
 1311UDC     C914419   1.920  10.795   2.130 -0.4147 -0.9040 -0.0978
 1311UDC    C1014420   2.066  10.811   2.076 -0.5373  0.6892 -1.0553
 1311UDC    C1114421   2.055  10.826   1.925  0.2192  0.5178 -0.6680
 1312UDC     C114422  13.762  14.840  16.839 -0.4143  0.3233  0.2481
 1312UDC     C214423  13.831  14.708  16.809  0.0302 -0.0030 -0.9779
 1312UDC     C314424  13.812  14.609  16.933 -0.8882 -0.2912  0.4971
 1312UDC     C414425  13.884  14.474  16.935 -0.2606  0.3401  0.3712
 1312UDC     C514426  13.845  14.392  17.056  0.6025 -0.5597 -0.0021
 1312UDC     C614427  13.910  14.458  17.183 -0.5609  0.7699 -0.3716
 1312UDC     C714428  13.813  14.505  17.291 -0.5327  0.8983 -0.4857
 1312UDC     C814429  13.815  14.416  17.418 -0.3952  1.4380  0.5737
 1312UDC     C914430  13.932  14.446  17.507  1.0254  0.3948 -0.8719
 1312UDC    C1014431  13.965  14.324  17.594 -0.3256 -0.3812 -0.4692
 1312UDC    C1114432  14.069  14.333  17.705 -0.0613 -0.0443  0.4125
 1313UDC     C114433  16.481  11.320   4.203 -0.7644  0.0106 -0.4508
 1313UDC     C214434  16.567  11.201   4.255  0.3079 -0.0057  0.5648
 1313UDC     C314435  16.553  11.060   4.182  0.8155 -0.1447  0.6596
 1313UDC     C414436  16.632  10.937   4.237  0.0613 -0.2067  0.0915
 1313UDC     C514437  16.627  10.810   4.155 -0.6309 -0.4764 -0.4929
 1313UDC     C614438  16.773  10.746   4.165  0.0010 -0.0947  0.0980
 1313UDC     C714439  16.877  10.830   4.083  0.3668 -0.3367 -0.5773
 1313UDC     C814440  17.022  10.805   4.131 -0.3899  0.3346 -0.1093
 1313UDC     C914441  17.120  10.889   4.056 -1.6308  0.0764 -0.0269
 1313UDC    C1014442  17.276  10.875   4.080 -1.4113  0.8083 -1.0460
 1313UDC    C1114443  17.401  10.935   4.005 -0.2519  0.5595  0.2701
 1314UDC     C114444  11.769   5.911  18.828  1.3678 -0.2980 -0.2841
 1314UDC     C214445  11.756   6.067  18.836  0.4827  0.6622 -0.7291
 1314UDC     C314446  11.620   6.134  18.892  0.4394  1.4200  0.7841
 1314UDC     C414447  11.479   6.076  18.862  0.9852  0.4955  1.0245
 1314UDC     C514448  11.365   6.176  18.895  0.5345 -0.4114  0.1948
 1314UDC     C614449  11.348   6.231  19.038 -0.2351 -0.6881  0.2072
 1314UDC     C714450  11.227   6.323  19.020 -0.6158  0.4734  0.0517
 1314UDC     C814451  11.117   6.335  19.132  0.6452 -0.2146 -0.6311
 1314UDC     C914452  11.085   6.199  19.202 -0.7140  0.3820 -0.6340
 1314UDC    C1014453  10.945   6.138  19.186  0.2426 -0.3842  0.1395
 1314UDC    C1114454  10.890   6.106  19.045  0.0203  0.1654  0.1944
 1315UDC     C114455   5.966  17.200  14.427 -0.6760 -0.7058  0.6098
 1315UDC     C214456   6.009  17.337  14.357  0.2231 -0.4211  0.0122
 1315UDC     C314457   6.067  17.312  14.216 -1.0359  1.2568  0.6770
 1315UDC     C414458   5.962  17.246  14.112 -0.2184  0.1112 -0.5364
 1315UDC     C514459   5.994  17.258  13.962  0.1309 -0.5508 -0.9780
 1315UDC     C614460   6.031  17.389  13.899  0.2756  0.1986 -0.4520
 1315UDC     C714461   5.921  17.493  13.866 -0.5000  0.8403 -0.3968
 1315UDC     C814462   5.968  17.628  13.801 -1.3021  0.1132  0.1410
 1315UDC     C914463   5.902  17.651  13.669 -0.5914 -1.0604 -0.1515
 1315UDC    C1014464   5.754  17.681  13.695  0.7658  1.2886  0.7806
 1315UDC    C1114465   5.677  17.766  13.592 -0.5147 -0.1326  0.1118
 1316UDC     C114466   1.026   7.399  15.208 -0.2104 -0.7071 -0.1973
 1316UDC     C214467   1.093   7.377  15.070 -0.2538  0.0296 -0.7441
 1316UDC     C314468   1.058   7.481  14.959  0.6144 -0.0519  0.6814
 1316UDC     C414469   0.908   7.501  14.921  0.1011  0.0658 -0.1838
 1316UDC     C514470   0.883   7.569  14.784 -0.6240 -1.0710  0.5891
 1316UDC     C614471   0.755   7.640  14.750 -0.2392 -0.9598 -0.7903
 1316UDC     C714472   0.778   7.683  14.601 -0.7994 -0.1194 -0.3377
 1316UDC     C814473   0.882   7.796  14.598 -0.4583 -0.2010 -0.7408
 1316UDC     C914474   0.950   7.828  14.467  0.7677 -0.4520  0.4963
 1316UDC    C1014475   1.056   7.940  14.475 -0.0141  0.2151  0.2219
 1316UDC    C1114476   1.161   7.931  14.587  0.6968 -0.8389  0.0887
 1317UDC     C114477  10.115  14.688  18.991 -0.2677 -0.6570  0.7517
 1317UDC     C214478  10.101  14.531  19.006 -0.3671 -0.9102  0.1527
 1317UDC     C314479  10.236  14.458  19.023 -0.9075 -0.1853  0.4811
 1317UDC     C414480  10.340  14.475  18.904  1.7637  0.0401  0.8207
 1317UDC     C514481  10.482  14.422  18.927  0.8016  0.8082  0.7445
 1317UDC     C614482  10.463  14.286  19.003  0.6006  0.3203  0.5675
 1317UDC     C714483  10.583  14.225  19.072  1.5247 -0.5756  0.2328
 1317UDC     C814484  10.694  14.189  18.977 -1.4325  0.2349  0.2209
 1317UDC     C914485  10.636  14.130  18.854  1.7885 -0.8654 -0.2695
 1317UDC    C1014486  10.734  14.086  18.749  0.5038  1.2180 -0.2232
 1317UDC    C1114487  10.703  13.958  18.665 -0.5678 -0.2518  0.3812
 1318UDC     C114488   7.695  19.552  14.716  0.2912 -0.0234 -0.5711
 1318UDC     C214489   7.659  19.405  14.723  0.1171 -0.5322  1.4609
 1318UDC     C314490   7.687  19.353  14.575 -0.8036 -0.1029 -0.1730
 1318UDC     C414491   7.584  19.422  14.485 -0.4881  0.2792  0.4082
 1318UDC     C514492   7.632  19.414  14.343  0.6064 -0.2247 -0.1437
 1318UDC     C614493   7.527  19.376  14.239 -0.2116  0.3238 -0.5197
 1318UDC     C714494   7.594  19.303  14.127  0.1274  1.1492  0.4718
 1318UDC     C814495   7.511  19.266  14.012  0.7617  0.1595  0.2398
 1318UDC     C914496   7.438  19.133  14.041 -0.7226  0.6879  0.4738
 1318UDC    C1014497   7.532  19.014  14.048  1.0004  1.1578 -0.3939
 1318UDC    C1114498   7.500  18.862  14.066  0.3708  0.0482  0.1490
 1319UDC     C114499  15.481   9.447   0.458 -0.4904  0.4277 -1.1341
 1319UDC     C214500  15.628   9.486   0.438  0.4015  0.4688 -0.8467
 1319UDC     C314501  15.709   9.436   0.557  0.4136  0.6127  0.2098
 1319UDC     C414502  15.801   9.315   0.541 -0.0782 -0.3511 -0.4504
 1319UDC     C514503  15.816   9.268   0.681 -0.7762 -0.5398 -0.2227
 1319UDC     C614504  15.944   9.319   0.745  0.8839 -0.9138  0.0612
 1319UDC     C714505  15.969   9.267   0.890  0.8616 -1.1865  0.1819
 1319UDC     C814506  16.098   9.329   0.946  0.2583  0.3587 -0.7063
 1319UDC     C914507  16.075   9.480   0.927 -0.3831 -0.0100  0.0915
 1319UDC    C1014508  16.196   9.568   0.964 -0.8725  0.0772 -2.2154
 1319UDC    C1114509  16.176   9.719   0.954  0.9926  0.4263 -0.6717
 1320UDC     C114510  19.807  19.886  14.017 -0.7251  0.2857  0.7696
 1320UDC     C214511  19.877  19.790  14.105 -0.1941  0.1575 -0.3980
 1320UDC     C314512  19.891  19.647  14.051 -0.6147  0.0065 -1.1516
 1320UDC     C414513  20.015  19.631  13.964 -0.5767 -1.5873 -0.0401
 1320UDC     C514514  19.958  19.543  13.859  0.2938 -0.5025  0.0726
 1320UDC     C614515  19.990  19.596  13.716 -1.1303 -0.2467 -0.6668
 1320UDC     C714516  19.958  19.739  13.674 -0.3506 -0.4455  0.7746
 1320UDC     C814517  19.895  19.735  13.536 -0.2313 -0.5620  0.1064
 1320UDC     C914518  19.825  19.869  13.511 -1.7757  0.3733 -0.4503
 1320UDC    C1014519  19.762  19.864  13.366  1.2746  0.6290  0.7662
 1320UDC    C1114520  19.857  19.818  13.254  1.0129 -0.3679  0.4074
 1321UDC     C114521  11.072  11.869   1.328  0.6499  0.2361  0.3306
 1321UDC     C214522  11.211  11.817   1.341  0.0231  0.1137 -0.1262
 1321UDC     C314523  11.211  11.662   1.308  0.2759 -0.0832 -0.1341
 1321UDC     C414524  11.333  11.575   1.331 -0.6393  0.4103  0.2748
 1321UDC     C514525  11.332  11.422   1.340 -0.9487 -0.3485  0.7896
 1321UDC     C614526  11.262  11.382   1.208  1.0304 -0.5958 -0.7803
 1321UDC     C714527  11.128  11.310   1.235 -0.0340 -0.4694 -0.4920
 1321UDC     C814528  11.092  11.215   1.118 -0.0396 -0.9700  1.0033
 1321UDC     C914529  10.949  11.168   1.156 -0.2854  0.4729 -0.5108
 1321UDC    C1014530  10.831  11.268   1.156 -1.2451 -0.0607  1.1320
 1321UDC    C1114531  10.770  11.307   1.018  0.0486 -0.5733 -0.0775
 1322UDC     C114532  10.360   3.488  17.417  0.3333  0.6555 -0.0554
 1322UDC     C214533  10.297   3.473  17.280 -0.0109 -0.3314  0.7761
 1322UDC     C314534  10.181   3.373  17.259  0.1742 -0.0080  0.2121
 1322UDC     C414535  10.072   3.361  17.371 -0.2883  0.4142  0.0095
 1322UDC     C514536   9.937   3.292  17.358 -0.3998  0.6723  0.4021
 1322UDC     C614537   9.934   3.140  17.366  0.2871  0.0813  0.3127
 1322UDC     C714538   9.809   3.048  17.359  1.1156 -0.4443  0.7046
 1322UDC     C814539   9.846   2.900  17.355 -0.4308  0.4084 -0.9818
 1322UDC     C914540   9.730   2.802  17.327 -0.5831  0.2116  0.4165
 1322UDC    C1014541   9.756   2.650  17.302 -0.6263 -0.2359 -0.8283
 1322UDC    C1114542   9.881   2.648  17.213  0.3556 -0.1206  0.7794
 1323UDC     C114543  19.453  12.965  19.810  0.8726 -0.3371 -0.2829
 1323UDC     C214544  19.486  13.082  19.719  0.9621 -0.6524  0.2088
 1323UDC     C314545  19.611  13.051  19.643 -1.0766 -0.3030 -0.0033
 1323UDC     C414546  19.726  13.009  19.737  0.6047  0.4264 -0.7827
 1323UDC     C514547  19.872  13.063  19.718 -0.0193  0.6275  0.0329
 1323UDC     C614548  19.981  12.985  19.788  0.1648  0.7551 -0.3390
 1323UDC     C714549  20.108  13.006  19.704  0.0199 -0.1323 -0.9652
 1323UDC     C814550  20.232  12.911  19.709  0.5382 -0.3470 -0.1980
 1323UDC     C914551  20.204  12.765  19.666 -0.1343 -0.3289 -0.4142
 1323UDC    C1014552  20.257  12.655  19.759  0.5204 -0.1924 -0.1476
 1323UDC    C1114553  20.182  12.519  19.757 -1.1611  0.7096  0.1094
 1324UDC     C114554   7.058  15.506  19.547 -0.4513 -0.3850 -1.1316
 1324UDC     C214555   7.002  15.449  19.416 -0.3302 -0.4653 -0.1119
 1324UDC     C314556   7.103  15.401  19.305 -0.4719 -0.6240 -1.8680
 1324UDC     C414557   7.175  15.282  19.352 -0.1003  0.6798 -0.3027
 1324UDC     C514558   7.304  15.262  19.279 -0.5155  0.5720 -0.1067
 1324UDC     C614559   7.415  15.168  19.337  1.2053  0.7155 -0.7162
 1324UDC     C714560   7.493  15.108  19.217  0.1439 -0.3159  1.5114
 1324UDC     C814561   7.506  14.955  19.208  0.9704  0.1064 -0.0543
 1324UDC     C914562   7.631  14.917  19.138 -0.3660  0.4165  0.7982
 1324UDC    C1014563   7.631  14.910  18.983  0.3141 -0.4883 -0.7326
 1324UDC    C1114564   7.765  14.960  18.938  0.9422  0.6553 -0.4063
 1325UDC     C114565   2.266  14.217  15.804  0.1151  0.5101 -0.4727
 1325UDC     C214566   2.385  14.120  15.818  0.7614 -0.2335 -0.7669
 1325UDC     C314567   2.510  14.167  15.741 -1.5430 -0.7493 -0.5674
 1325UDC     C414568   2.633  14.072  15.758  0.8353 -1.4657 -0.1375
 1325UDC     C514569   2.620  13.930  15.701  0.1988  0.1419 -0.1951
 1325UDC     C614570   2.747  13.837  15.708  1.0659 -0.9413 -0.1720
 1325UDC     C714571   2.869  13.901  15.655 -0.2959 -0.8131  0.3847
 1325UDC     C814572   2.994  13.816  15.635  1.0508  0.2148 -0.2152
 1325UDC     C914573   3.090  13.789  15.750  0.2856  0.1781 -0.2651
 1325UDC    C1014574   3.227  13.764  15.695 -1.2945 -0.1439  0.8767
 1325UDC    C1114575   3.330  13.695  15.794  0.0047 -0.3564 -0.5759
 1326UDC     C114576   9.467   4.692  17.109 -0.2697 -1.2189  0.3354
 1326UDC     C214577   9.497   4.786  16.991 -0.0750 -0.2127  0.4860
 1326UDC     C314578   9.554   4.928  17.032 -0.0845 -0.0925 -0.0496
 1326UDC     C414579   9.543   5.037  16.925 -0.5863 -1.1145  0.6087
 1326UDC     C514580   9.612   5.164  16.968 -0.8159 -1.1847  0.3804
 1326UDC     C614581   9.602   5.284  16.881  0.3064  0.0457  0.7421
 1326UDC     C714582   9.727   5.335  16.806 -0.1981  1.2814 -1.1622
 1326UDC     C814583   9.852   5.377  16.892 -0.0417 -0.2716 -0.0053
 1326UDC     C914584   9.838   5.508  16.969 -0.1738  0.2418  0.1562
 1326UDC    C1014585   9.943   5.518  17.082  0.5486  0.0800  0.1519
 1326UDC    C1114586  10.086   5.508  17.030 -0.8556  0.2243 -0.7078
 1327UDC     C114587   2.044  17.074  11.733 -0.2300  1.0613  0.3488
 1327UDC     C214588   1.944  17.157  11.644 -0.3583  0.0781 -0.2753
 1327UDC     C314589   1.904  17.299  11.702  0.1203  0.3654  0.3228
 1327UDC     C414590   1.864  17.422  11.620  0.7184  0.4100 -0.7600
 1327UDC     C514591   1.986  17.498  11.558  1.7849  0.2746  0.3321
 1327UDC     C614592   1.985  17.654  11.538 -1.5136  0.2602 -0.1192
 1327UDC     C714593   2.086  17.715  11.440 -0.1161 -0.6947  0.2556
 1327UDC     C814594   2.033  17.711  11.291  0.1535 -0.1192  0.2096
 1327UDC     C914595   2.119  17.792  11.193  0.9063 -0.3859  0.1041
 1327UDC    C1014596   2.115  17.791  11.037 -0.4791 -1.0558 -0.7195
 1327UDC    C1114597   2.236  17.867  10.972  0.9378  0.8419 -0.3181
 1328UDC     C114598  16.789   6.418   5.175  0.4986  1.3492  0.6809
 1328UDC     C214599  16.781   6.322   5.301 -0.5739 -0.5127 -0.9029
 1328UDC     C314600  16.910   6.315   5.378  0.6022  0.4496  0.6476
 1328UDC     C414601  16.903   6.204   5.485 -0.6845  0.4268  0.3077
 1328UDC     C514602  16.909   6.066   5.418  0.5163 -0.5266  0.3145
 1328UDC     C614603  16.940   5.943   5.497  0.4493 -0.0744 -0.6166
 1328UDC     C714604  16.991   5.818   5.415  0.5138 -0.5430  1.0363
 1328UDC     C814605  17.040   5.709   5.508  0.7458 -0.2479 -0.3550
 1328UDC     C914606  17.135   5.762   5.617  0.1741  0.2032 -0.6477
 1328UDC    C1014607  17.165   5.676   5.736 -0.0824  0.6908 -0.1629
 1328UDC    C1114608  17.040   5.620   5.792 -0.3089 -0.3577 -0.5037
 1329UDC     C114609  17.168   8.138   2.464  0.9659  0.3744  0.7537
 1329UDC     C214610  17.075   8.019   2.503  0.3658  0.1504 -0.9435
 1329UDC     C314611  17.150   7.884   2.506  1.1295  0.0744 -1.0113
 1329UDC     C414612  17.210   7.824   2.382 -0.6953  0.1813 -0.1522
 1329UDC     C514613  17.101   7.792   2.272  0.4410  0.2658  0.7933
 1329UDC     C614614  17.177   7.763   2.136  0.9968  0.3415 -0.2301
 1329UDC     C714615  17.252   7.878   2.069 -0.5933  0.6898 -0.4298
 1329UDC     C814616  17.349   7.817   1.974 -1.8914  0.6393  0.0665
 1329UDC     C914617  17.450   7.898   1.887 -0.8757  0.3922  0.3003
 1329UDC    C1014618  17.391   7.948   1.751 -0.8791 -0.2153  0.0894
 1329UDC    C1114619  17.492   8.039   1.671 -0.1721  0.0677  0.7169
 1330UDC     C114620   7.941  11.114   8.256  0.1311  0.6519 -0.9211
 1330UDC     C214621   7.992  10.969   8.281  0.0065 -0.7759  0.6743
 1330UDC     C314622   7.983  10.927   8.429 -0.1667 -0.3646 -0.5821
 1330UDC     C414623   8.085  11.008   8.512  0.2201 -0.2753 -0.1436
 1330UDC     C514624   8.079  10.944   8.651 -0.6643  0.3853 -1.0223
 1330UDC     C614625   7.940  10.917   8.711 -0.3736 -0.1454 -1.0197
 1330UDC     C714626   7.942  10.795   8.805 -0.0320 -0.3130  0.7076
 1330UDC     C814627   7.809  10.785   8.886 -0.4751  0.1747  0.5639
 1330UDC     C914628   7.778  10.914   8.957  0.8912  0.3347  0.2351
 1330UDC    C1014629   7.629  10.925   9.013 -0.5277  1.0532 -0.0827
 1330UDC    C1114630   7.591  11.064   9.072 -0.1659 -0.6447 -1.4000
 1331UDC     C114631  13.393   9.609  12.995  0.5819  0.0495  0.0590
 1331UDC     C214632  13.440   9.481  12.935 -0.0012  0.5605 -0.4178
 1331UDC     C314633  13.525   9.407  13.043 -0.2015 -0.2009 -0.1945
 1331UDC     C414634  13.557   9.258  13.008 -0.6164 -0.3465 -1.2586
 1331UDC     C514635  13.601   9.192  13.146  0.2116  0.2699  0.1397
 1331UDC     C614636  13.628   9.036  13.159  0.0562  0.2356  1.3339
 1331UDC     C714637  13.710   8.989  13.271  0.0484 -0.0079 -0.9939
 1331UDC     C814638  13.786   8.860  13.220 -0.4921  0.6267 -0.6668
 1331UDC     C914639  13.808   8.865  13.072 -0.4085  0.3160  0.1192
 1331UDC    C1014640  13.932   8.781  13.052  0.5663  1.3087 -0.4056
 1331UDC    C1114641  14.020   8.828  12.939  0.5482  1.0662  0.2786
 1332UDC     C114642  19.570  16.665  19.982  0.1426  0.9622  0.9701
 1332UDC     C214643  19.521  16.551  20.071  0.1997 -1.1377 -0.4677
 1332UDC     C314644  19.630  16.458  20.122 -0.2750  0.3425  0.6951
 1332UDC     C414645  19.656  16.345  20.015  0.7900 -0.2874  0.3981
 1332UDC     C514646  19.561  16.223  20.030 -0.1862 -0.2417  0.3820
 1332UDC     C614647  19.577  16.121  19.915  0.2069 -0.7368  0.1514
 1332UDC     C714648  19.499  15.992  19.927 -0.1339  0.4513 -0.2414
 1332UDC     C814649  19.346  15.989  19.932 -0.7188  0.2475  0.3010
 1332UDC     C914650  19.292  16.075  19.822  0.2943  0.1376  0.5274
 1332UDC    C1014651  19.229  15.991  19.710  0.4244  0.8797  0.1832
 1332UDC    C1114652  19.193  16.063  19.581 -0.0226  0.2911  0.3154
 1333UDC     C114653  18.404  14.948   4.885  0.3679  0.6122  0.1369
 1333UDC     C214654  18.541  15.009   4.847 -0.8238 -0.2713 -0.1281
 1333UDC     C314655  18.539  15.129   4.747  0.5178 -0.5452 -1.4643
 1333UDC     C414656  18.494  15.098   4.600 -0.0859  0.2546 -0.4206
 1333UDC     C514657  18.614  15.046   4.531 -0.4719  0.0651 -0.4923
 1333UDC     C614658  18.562  15.000   4.394 -0.7493 -0.3227  0.6384
 1333UDC     C714659  18.676  14.972   4.283  0.9250  0.9427 -1.5365
 1333UDC     C814660  18.740  15.094   4.221 -0.3463 -0.0820  0.1690
 1333UDC     C914661  18.841  15.010   4.134 -0.3048  0.7023  0.5527
 1333UDC    C1014662  18.810  15.022   3.984 -0.5207  0.0816 -0.3731
 1333UDC    C1114663  18.858  14.896   3.914 -0.6815  0.7613 -0.9939
 1334UDC     C114664   6.411  14.475   9.506 -0.4441  0.2605  0.1630
 1334UDC     C214665   6.359  14.615   9.524  0.4683 -0.9649  1.6108
 1334UDC     C314666   6.203  14.617   9.496  0.6962 -1.0812  0.5212
 1334UDC     C414667   6.147  14.760   9.493 -0.4361  0.0804  0.2036
 1334UDC     C514668   6.002  14.785   9.442  0.3518 -0.8634  0.0529
 1334UDC     C614669   5.896  14.725   9.532 -0.0757 -0.1054 -0.4451
 1334UDC     C714670   5.815  14.608   9.470 -0.3257 -0.9292 -0.1196
 1334UDC     C814671   5.681  14.644   9.398  0.2817  0.9178 -0.4694
 1334UDC     C914672   5.581  14.530   9.369 -0.2526  1.3483 -0.0730
 1334UDC    C1014673   5.532  14.475   9.502 -0.3307  0.3798  0.1911
 1334UDC    C1114674   5.489  14.327   9.494 -0.2764  0.0040 -0.3995
 1335UDC     C114675  15.693   0.195   1.798 -0.3055  0.5475 -0.2756
 1335UDC     C214676  15.756   0.293   1.904  0.9563 -0.4511  0.2798
 1335UDC     C314677  15.906   0.313   1.885 -0.0256  0.5194  0.0672
 1335UDC     C414678  15.941   0.420   1.779 -0.4107 -0.0097  0.5358
 1335UDC     C514679  16.085   0.460   1.738 -0.1671 -0.0101  0.3917
 1335UDC     C614680  16.097   0.596   1.664  0.6280  0.5791 -1.0519
 1335UDC     C714681  16.237   0.638   1.611 -0.4944  1.2257  0.8264
 1335UDC     C814682  16.275   0.549   1.488  0.5542 -0.7474  0.2120
 1335UDC     C914683  16.383   0.601   1.397 -0.4368 -0.0241 -0.2296
 1335UDC    C1014684  16.384   0.499   1.279  0.8837  0.1802 -1.1300
 1335UDC    C1114685  16.444   0.556   1.141  0.3079 -0.5179  0.4228
 1336UDC     C114686   3.226   2.963   1.657 -1.0152 -1.0251 -0.1408
 1336UDC     C214687   3.253   2.962   1.812  0.5682 -0.0636  0.1853
 1336UDC     C314688   3.122   2.999   1.876 -0.3399  0.0538  0.2238
 1336UDC     C414689   3.129   3.012   2.032 -0.0007 -0.0461  0.8664
 1336UDC     C514690   3.122   3.163   2.060  1.6306  0.9475 -0.2663
 1336UDC     C614691   3.162   3.206   2.202  0.2620  0.9091 -0.2289
 1336UDC     C714692   3.163   3.356   2.223 -1.3846 -0.6814 -0.1749
 1336UDC     C814693   3.234   3.396   2.358 -1.0092  0.1410 -0.1927
 1336UDC     C914694   3.295   3.536   2.360 -0.1621 -0.0603  0.2498
 1336UDC    C1014695   3.190   3.645   2.340 -0.1851 -0.3794  0.0408
 1336UDC    C1114696   3.222   3.789   2.289  0.2620  0.2434 -0.2176
 1337UDC     C114697   4.891   6.601  19.087 -0.3056  1.2146 -0.1910
 1337UDC     C214698   4.863   6.555  19.225 -0.7639  0.5812  0.0472
 1337UDC     C314699   4.909   6.402  19.253  0.5598 -1.0028  0.4244
 1337UDC     C414700   4.826   6.337  19.362  0.2171  0.4837  0.3050
 1337UDC     C514701   4.686   6.392  19.350 -0.5079 -0.6631  0.1326
 1337UDC     C614702   4.617   6.410  19.490  0.1391 -0.4961  0.1644
 1337UDC     C714703   4.541   6.542  19.496  0.5240 -0.2012 -0.1256
 1337UDC     C814704   4.435   6.529  19.606 -0.1283 -0.1822  0.1682
 1337UDC     C914705   4.465   6.500  19.757 -0.3666  0.4421 -1.4982
 1337UDC    C1014706   4.337   6.478  19.843 -0.5864  0.5133  0.3768
 1337UDC    C1114707   4.369   6.482  20.000 -0.0382  0.2389 -1.4062
 1338UDC     C114708  16.294   2.054   4.818  1.0268  0.5339 -1.3001
 1338UDC     C214709  16.364   2.187   4.797 -0.8490  0.5486 -0.7851
 1338UDC     C314710  16.372   2.227   4.652 -1.3594  0.8448  0.2979
 1338UDC     C414711  16.429   2.118   4.549  0.1773  0.0890  0.8934
 1338UDC     C514712  16.387   2.170   4.402 -1.1965  0.6138 -0.3532
 1338UDC     C614713  16.323   2.311   4.399  0.8342 -0.9650  0.1688
 1338UDC     C714714  16.252   2.345   4.265  0.5580 -0.0045 -0.4072
 1338UDC     C814715  16.195   2.482   4.232 -0.6377 -0.1221 -0.4567
 1338UDC     C914716  16.113   2.475   4.100  0.2198 -0.6345 -0.5698
 1338UDC    C1014717  15.970   2.420   4.130 -0.0080 -0.2090 -0.3125
 1338UDC    C1114718  15.864   2.410   4.021 -0.2372  0.4214  0.0588
 1339UDC     C114719   6.617   2.186   5.816  0.2927  0.5978 -1.0963
 1339UDC     C214720   6.522   2.178   5.701 -0.0062 -0.3072  0.3314
 1339UDC     C314721   6.526   2.293   5.597 -0.4040 -0.5882 -0.2651
 1339UDC     C414722   6.416   2.269   5.492  0.6011 -0.2276  0.1305
 1339UDC     C514723   6.420   2.384   5.390 -0.5285  0.0865 -0.6639
 1339UDC     C614724   6.365   2.515   5.445 -0.1251  0.0937 -0.2242
 1339UDC     C714725   6.368   2.632   5.347 -0.5730  0.6049 -0.1700
 1339UDC     C814726   6.322   2.763   5.416  0.8734 -1.1382 -0.1977
 1339UDC     C914727   6.287   2.877   5.316 -0.2656 -0.2761  0.5144
 1339UDC    C1014728   6.309   3.012   5.398 -0.0140  1.5064  0.2689
 1339UDC    C1114729   6.276   3.139   5.318 -0.2633  0.0231 -0.5323
 1340UDC     C114730  12.034  14.982   1.135 -0.0628 -0.2183 -0.2036
 1340UDC     C214731  12.038  15.118   1.058 -0.6663  0.1180 -0.4500
 1340UDC     C314732  11.925  15.202   1.112 -0.9529  1.0159 -0.7356
 1340UDC     C414733  11.907  15.335   1.046 -1.1684  0.1411  0.0522
 1340UDC     C514734  11.851  15.309   0.903  0.3778 -0.6165 -0.4331
 1340UDC     C614735  11.885  15.439   0.832 -1.1542  1.1264  0.3864
 1340UDC     C714736  11.785  15.554   0.879  0.1352 -0.0981  0.8824
 1340UDC     C814737  11.730  15.612   0.747  1.2551 -0.9233 -1.1951
 1340UDC     C914738  11.637  15.738   0.746 -0.1814  0.0068 -0.4582
 1340UDC    C1014739  11.510  15.707   0.835 -0.7052  0.6599 -0.1729
 1340UDC    C1114740  11.386  15.670   0.753  0.6069  0.1493 -0.5738
 1341UDC     C114741   7.956  10.700   7.587  0.6863  0.2781 -0.6538
 1341UDC     C214742   7.920  10.829   7.662 -0.1527  1.2458 -0.7163
 1341UDC     C314743   8.042  10.909   7.711 -1.1726 -0.1151 -1.4658
 1341UDC     C414744   7.993  11.060   7.717  0.4652 -0.1709 -0.2822
 1341UDC     C514745   8.079  11.182   7.772  0.5991 -0.8017  0.5694
 1341UDC     C614746   8.031  11.332   7.745 -0.5994  0.0289  0.5969
 1341UDC     C714747   7.902  11.379   7.816  0.0717  0.4879  0.1202
 1341UDC     C814748   7.804  11.460   7.731  0.6381  0.3018 -0.3758
 1341UDC     C914749   7.694  11.533   7.812 -1.3482  0.5211  0.1239
 1341UDC    C1014750   7.559  11.570   7.737  0.2662 -0.5803  0.6935
 1341UDC    C1114751   7.470  11.447   7.725  1.0145  0.6461  0.4240
 1342UDC     C114752   4.758  19.072  15.201  1.9693  0.0845 -0.1923
 1342UDC     C214753   4.851  19.066  15.084 -0.1838  0.5706 -0.0136
 1342UDC     C314754   4.853  18.927  15.020 -0.1698  0.7281 -0.0740
 1342UDC     C414755   4.946  18.920  14.899 -0.6212  0.3663 -1.1125
 1342UDC     C514756   4.981  18.775  14.860 -0.3821  0.0301  0.0728
 1342UDC     C614757   5.038  18.689  14.971 -0.2081 -0.2498  0.6759
 1342UDC     C714758   5.109  18.563  14.911  0.2730 -0.1160 -1.0661
 1342UDC     C814759   5.026  18.435  14.877 -0.9723  0.0903 -0.2804
 1342UDC     C914760   5.103  18.302  14.837  0.2584 -0.3290  0.5717
 1342UDC    C1014761   5.185  18.244  14.955  0.3617 -1.4637 -1.0102
 1342UDC    C1114762   5.288  18.143  14.906  0.4444  0.4372  0.4865
 1343UDC     C114763  11.500   6.803  13.267  0.6127  0.5153 -0.8619
 1343UDC     C214764  11.528   6.658  13.221  0.9074  0.8711 -0.6357
 1343UDC     C314765  11.455   6.622  13.087  0.0040 -1.0506  0.1846
 1343UDC     C414766  11.479   6.479  13.048 -0.3368 -0.0698  0.1517
 1343UDC     C514767  11.429   6.440  12.904 -0.1378 -0.4561  0.2942
 1343UDC     C614768  11.420   6.283  12.878  0.4124 -0.8976  0.2345
 1343UDC     C714769  11.381   6.243  12.737  0.2275  0.0579 -0.4414
 1343UDC     C814770  11.245   6.173  12.719 -0.1215 -0.8099  0.0899
 1343UDC     C914771  11.209   6.155  12.570  0.5592 -0.2099 -0.8434
 1343UDC    C1014772  11.072   6.090  12.540  0.7219 -0.3344  0.1669
 1343UDC    C1114773  11.076   5.947  12.489  0.2753  0.3506  0.4891
 1344UDC     C114774   4.271  12.574   8.154  0.1272  0.5151 -0.8285
 1344UDC     C214775   4.316  12.500   8.027 -0.7286  1.0421 -0.7084
 1344UDC     C314776   4.204  12.435   7.941  0.5200  0.8882  0.4146
 1344UDC     C414777   4.104  12.349   8.017 -0.2714  1.0926 -0.0671
 1344UDC     C514778   3.982  12.272   7.966 -0.9102  0.4386  0.1195
 1344UDC     C614779   3.838  12.322   7.992 -0.4469  1.2309  0.7549
 1344UDC     C714780   3.727  12.233   7.928  0.2648 -1.1628  0.6894
 1344UDC     C814781   3.602  12.256   8.013 -0.1663 -1.5663  0.4941
 1344UDC     C914782   3.549  12.398   8.040 -0.8752  0.2108  0.8557
 1344UDC    C1014783   3.406  12.415   7.983 -0.0797 -0.1507  0.7290
 1344UDC    C1114784   3.344  12.548   8.006  1.0886 -0.5114 -0.7826
 1345UDC     C114785   4.741  14.395  17.799  0.7104  0.1773  0.4354
 1345UDC     C214786   4.702  14.361  17.654 -1.0580 -0.6761  1.2133
 1345UDC     C314787   4.624  14.232  17.646  0.1882  0.0949  1.0486
 1345UDC     C414788   4.623  14.170  17.506 -0.2776  0.4800  0.4496
 1345UDC     C514789   4.761  14.146  17.442  1.0968 -0.0246  0.0984
 1345UDC     C614790   4.818  14.003  17.488 -0.9051  0.2728  0.7175
 1345UDC     C714791   4.933  13.967  17.395 -0.5300 -0.8417 -0.1727
 1345UDC     C814792   4.903  13.908  17.257 -0.6500  0.2860 -0.4943
 1345UDC     C914793   5.030  13.895  17.173  1.0443 -0.7365 -0.9320
 1345UDC    C1014794   5.116  14.020  17.183  0.6323 -0.7216 -0.0820
 1345UDC    C1114795   5.263  14.004  17.146  0.0843 -0.4003 -1.1748
 1346UDC     C114796   2.488  14.056   0.835  0.6335  0.0368  0.0572
 1346UDC     C214797   2.442  13.909   0.827  0.1639 -0.4762 -0.2094
 1346UDC     C314798   2.361  13.856   0.949 -0.2569 -0.2563  0.8923
 1346UDC     C414799   2.265  13.741   0.904  0.0570  1.7505  0.0965
 1346UDC     C514800   2.170  13.704   1.023  1.0113 -0.0235 -0.3637
 1346UDC     C614801   2.256  13.641   1.134 -0.5158  0.0872  0.5557
 1346UDC     C714802   2.165  13.599   1.256 -0.4963 -0.7380  0.0811
 1346UDC     C814803   2.232  13.641   1.391  0.3514 -1.2217 -0.1926
 1346UDC     C914804   2.348  13.544   1.429  0.4333  0.3937 -1.0118
 1346UDC    C1014805   2.405  13.566   1.576 -0.0195 -0.8101  0.2258
 1346UDC    C1114806   2.332  13.572   1.712  0.4775  0.5111 -0.6807
 1347UDC     C114807  10.960   8.811  10.419  0.1135  0.4032 -1.4392
 1347UDC     C214808  11.039   8.678  10.439 -0.1853 -0.4386 -0.6291
 1347UDC     C314809  11.059   8.612  10.308  0.5758 -0.1860 -0.2347
 1347UDC     C414810  11.182   8.525  10.305 -1.2052 -0.4090 -0.2700
 1347UDC     C514811  11.208   8.483  10.157 -0.5734  0.4329  0.1088
 1347UDC     C614812  11.267   8.607  10.085 -0.0497 -0.0127 -1.2065
 1347UDC     C714813  11.269   8.553   9.939 -0.3840 -0.7918 -0.2313
 1347UDC     C814814  11.246   8.658   9.833  0.0490 -0.7738  0.1481
 1347UDC     C914815  11.121   8.740   9.834  0.0270 -1.3248  0.0391
 1347UDC    C1014816  11.114   8.828   9.709 -0.0204  0.5236 -0.5398
 1347UDC    C1114817  11.025   8.946   9.749 -0.7094  1.2393  0.6713
 1348UDC     C114818   3.015   9.150  17.609  0.3496 -1.1214  0.0902
 1348UDC     C214819   2.880   9.132  17.552  0.7817 -1.4795  0.4779
 1348UDC     C314820   2.804   9.005  17.592  0.7318  0.6551  1.3505
 1348UDC     C414821   2.870   8.868  17.549  0.2117  1.0971 -0.5293
 1348UDC     C514822   2.769   8.756  17.536  0.1817  0.7470 -0.7842
 1348UDC     C614823   2.632   8.804  17.497  0.1553  0.1978  0.6271
 1348UDC     C714824   2.531   8.687  17.491  0.4366 -0.9198 -0.3291
 1348UDC     C814825   2.524   8.608  17.619  0.0457  0.6101  0.5309
 1348UDC     C914826   2.448   8.474  17.606  0.5822  0.6638 -0.8240
 1348UDC    C1014827   2.296   8.494  17.611  0.0991 -0.6042 -0.4642
 1348UDC    C1114828   2.235   8.559  17.742 -0.7179  0.2045 -0.1563
 1349UDC     C114829   6.920   3.645   6.358  0.3380  0.4777 -1.2665
 1349UDC     C214830   6.942   3.500   6.320 -0.0990  0.5980  0.8625
 1349UDC     C314831   7.084   3.471   6.249 -0.3860  1.1291 -1.0430
 1349UDC     C414832   7.137   3.551   6.131  0.0333  0.0160 -0.3951
 1349UDC     C514833   7.051   3.600   6.015  0.7761  0.8161 -0.2152
 1349UDC     C614834   7.116   3.691   5.913 -0.2124  0.3393  0.2984
 1349UDC     C714835   7.030   3.744   5.803  0.4473  0.3925  1.2632
 1349UDC     C814836   7.088   3.773   5.668 -0.4065  0.7178  0.0855
 1349UDC     C914837   6.990   3.844   5.574  0.0409 -0.8600  0.3686
 1349UDC    C1014838   7.063   3.905   5.443  1.1777  0.1402  0.4842
 1349UDC    C1114839   6.987   4.035   5.396 -0.1800 -0.7214 -0.1313
 1350UDC     C114840  11.670   0.412   5.891  0.2933 -0.6524  0.6197
 1350UDC     C214841  11.600   0.544   5.914  0.1620 -1.1926 -0.9580
 1350UDC     C314842  11.548   0.637   5.806  0.5589  0.5891 -0.3863
 1350UDC     C414843  11.660   0.713   5.735 -0.7909 -1.0219  0.9528
 1350UDC     C514844  11.623   0.791   5.604 -0.5951 -0.5831  0.1974
 1350UDC     C614845  11.502   0.884   5.576 -0.6767  0.6789 -0.2502
 1350UDC     C714846  11.497   0.933   5.430 -0.8203 -0.2883 -0.1414
 1350UDC     C814847  11.364   0.944   5.363  0.6255  0.1610  0.2521
 1350UDC     C914848  11.295   1.075   5.409 -0.5830  0.6567  0.1254
 1350UDC    C1014849  11.144   1.068   5.403  0.3417 -0.5468  0.5850
 1350UDC    C1114850  11.079   1.200   5.421  0.7695  0.5625  0.7551
 1351UDC     C114851  13.368  11.063   1.636  0.8652  0.5005  0.7464
 1351UDC     C214852  13.301  11.170   1.544 -0.0979 -0.7260 -0.5513
 1351UDC     C314853  13.183  11.240   1.624 -0.4835 -0.2876  0.2963
 1351UDC     C414854  13.102  11.345   1.547  1.0389  0.9396  0.1371
 1351UDC     C514855  13.002  11.421   1.623 -0.4490  0.2751 -0.2466
 1351UDC     C614856  13.091  11.520   1.698 -0.4690  0.0159 -0.1728
 1351UDC     C714857  13.150  11.637   1.612  0.5206 -0.9246 -0.0776
 1351UDC     C814858  13.224  11.745   1.687 -0.9043 -0.7720  0.2825
 1351UDC     C914859  13.369  11.721   1.737  0.4725 -0.0570 -0.1494
 1351UDC    C1014860  13.460  11.844   1.741  0.0407 -0.3397 -0.0792
 1351UDC    C1114861  13.395  11.962   1.812 -0.1343 -0.3869 -0.4202
 1352UDC     C114862   6.060  12.672  10.815  0.1831 -0.1354  0.2113
 1352UDC     C214863   5.933  12.769  10.784 -0.2552  0.2251 -1.4036
 1352UDC     C314864   5.943  12.922  10.828  0.3077  0.9432  0.2819
 1352UDC     C414865   6.062  12.991  10.771 -0.6419  0.5962  0.3943
 1352UDC     C514866   6.056  13.138  10.743  0.2605 -0.6935  0.3340
 1352UDC     C614867   5.924  13.150  10.663 -0.2326  0.4022 -0.1610
 1352UDC     C714868   5.848  13.287  10.685 -0.6495  0.5555 -0.1770
 1352UDC     C814869   5.719  13.302  10.608  0.2029 -0.0522  0.3048
 1352UDC     C914870   5.632  13.427  10.626  1.1450  0.3543 -0.2089
 1352UDC    C1014871   5.553  13.459  10.759 -0.5318  1.0392 -0.2564
 1352UDC    C1114872   5.450  13.354  10.800  0.4596 -0.4524  0.3215
 1353UDC     C114873   2.190   5.715  11.186  0.6988  0.2181 -1.3724
 1353UDC     C214874   2.234   5.712  11.334 -0.3561 -0.7844  1.4836
 1353UDC     C314875   2.282   5.584  11.384  0.4769  1.1887 -1.4866
 1353UDC     C414876   2.376   5.595  11.505 -0.0982  0.5509  0.5270
 1353UDC     C514877   2.450   5.467  11.547 -0.6425  0.0600  0.1392
 1353UDC     C614878   2.391   5.325  11.562 -0.2075  0.1130 -0.5914
 1353UDC     C714879   2.465   5.229  11.655 -0.7241 -0.0161 -0.9826
 1353UDC     C814880   2.395   5.093  11.673  0.5837  0.3423 -0.0587
 1353UDC     C914881   2.479   4.985  11.735  0.9384  0.1127 -0.3260
 1353UDC    C1014882   2.410   4.856  11.767  1.1800 -0.0124 -0.3050
 1353UDC    C1114883   2.528   4.764  11.803  1.3114 -1.4962  0.6416
 1354UDC     C114884  19.052  12.163   1.653 -0.8911 -0.3472 -0.2898
 1354UDC     C214885  19.099  12.245   1.533  0.9444  0.2750 -0.2223
 1354UDC     C314886  19.159  12.383   1.563  0.1113  0.1473 -0.1936
 1354UDC     C414887  19.204  12.447   1.433 -0.7487 -0.1152  0.3595
 1354UDC     C514888  19.216  12.597   1.466  0.4026 -0.8913 -0.7719
 1354UDC     C614889  19.135  12.685   1.368 -0.8800 -0.3885 -1.6377
 1354UDC     C714890  19.136  12.835   1.408 -0.1628  0.5133  1.6161
 1354UDC     C814891  19.277  12.904   1.424  0.0526 -0.4540 -0.1768
 1354UDC     C914892  19.275  13.024   1.521 -0.1414  0.1781 -0.2498
 1354UDC    C1014893  19.411  13.072   1.567 -0.2704  0.2482  0.0267
 1354UDC    C1114894  19.422  13.167   1.694 -0.1032  0.8390  0.6891
 1355UDC     C114895   9.428  17.034  17.583 -0.1266 -0.5175  0.0950
 1355UDC     C214896   9.299  16.957  17.565  0.2484  0.6467  1.5056
 1355UDC     C314897   9.309  16.800  17.561 -0.0126  0.4941  0.6204
 1355UDC     C414898   9.179  16.739  17.502 -0.2575 -0.4953 -0.4664
 1355UDC     C514899   9.089  16.812  17.393 -0.7602  0.4218 -0.4055
 1355UDC     C614900   9.007  16.708  17.304 -1.2045 -0.0862  0.2598
 1355UDC     C714901   8.954  16.753  17.172 -0.7194  0.1112  0.6832
 1355UDC     C814902   8.885  16.620  17.124  1.0589  0.7117  1.3781
 1355UDC     C914903   8.916  16.591  16.974  0.4442  0.2667 -0.2957
 1355UDC    C1014904   9.067  16.565  16.956  0.7345  0.0595  0.4184
 1355UDC    C1114905   9.144  16.444  17.023 -0.1375  0.6322 -0.0272
 1356UDC     C114906  10.089   4.934  18.489 -0.3316 -0.3467 -1.0959
 1356UDC     C214907  10.196   4.946  18.602 -0.6024  0.0262  0.2267
 1356UDC     C314908  10.256   4.813  18.606  1.3325  0.0724 -0.2599
 1356UDC     C414909  10.400   4.833  18.657  0.8311 -0.4715  1.0283
 1356UDC     C514910  10.494   4.936  18.584  0.0198 -0.5178 -0.2110
 1356UDC     C614911  10.642   4.902  18.595 -0.4151  0.1690  1.2355
 1356UDC     C714912  10.729   4.949  18.468  0.8007 -0.4674 -0.9248
 1356UDC     C814913  10.843   5.041  18.509  0.1272  0.5593  0.4275
 1356UDC     C914914  10.963   5.009  18.416  0.0036 -0.9419 -0.8638
 1356UDC    C1014915  10.972   5.122  18.312  0.9198 -1.1668  0.4703
 1356UDC    C1114916  11.027   5.088  18.173  0.1602  0.0023 -0.0762
 1357UDC     C114917  15.772   2.066  19.026  0.6083 -0.4241  0.2330
 1357UDC     C214918  15.624   2.021  19.010  1.4964  0.0091 -0.1164
 1357UDC     C314919  15.596   1.971  18.870  1.1166  0.2097  1.1679
 1357UDC     C414920  15.475   2.035  18.790 -0.2088  0.2263  0.3471
 1357UDC     C514921  15.396   1.959  18.677 -0.1097  0.0715  1.1183
 1357UDC     C614922  15.289   2.025  18.590  0.6852 -0.0700  0.2148
 1357UDC     C714923  15.260   1.965  18.459 -0.0832  1.3332  0.8227
 1357UDC     C814924  15.384   1.899  18.391  0.1836 -0.4664  0.4485
 1357UDC     C914925  15.360   1.811  18.265 -0.1767  0.5826  0.3569
 1357UDC    C1014926  15.259   1.875  18.177  0.1455  1.2122  0.6997
 1357UDC    C1114927  15.223   1.777  18.068 -0.3005 -0.3459 -0.1199
 1358UDC     C114928  17.639  18.957  16.122  0.0708 -0.4429  0.7840
 1358UDC     C214929  17.781  18.960  16.174 -0.5926  0.0213 -0.1564
 1358UDC     C314930  17.864  19.039  16.063  0.8472 -0.5692  0.1479
 1358UDC     C414931  18.012  19.048  16.098 -0.4512 -0.2929  0.9636
 1358UDC     C514932  18.083  19.049  15.959  0.4389 -0.1373  0.3582
 1358UDC     C614933  18.160  19.177  15.927  0.3600 -0.4799  0.0810
 1358UDC     C714934  18.262  19.248  16.025 -0.2022 -1.1603 -0.5627
 1358UDC     C814935  18.293  19.396  15.989 -0.5270  0.4821 -0.0664
 1358UDC     C914936  18.415  19.463  16.054  0.9308  0.4409  1.1349
 1358UDC    C1014937  18.400  19.504  16.197 -0.0753  0.8769 -0.5068
 1358UDC    C1114938  18.518  19.595  16.244 -0.2398  0.2912 -0.3027
 1359UDC     C114939   6.255   7.458  18.419  0.1554  0.9511 -0.2086
 1359UDC     C214940   6.209   7.373  18.543 -0.3211 -0.2854  0.0322
 1359UDC     C314941   6.272   7.228  18.541  1.3181  0.1221 -0.1559
 1359UDC     C414942   6.368   7.207  18.422  0.4296 -0.6203 -0.7185
 1359UDC     C514943   6.396   7.070  18.374  0.2430 -0.4075  0.1737
 1359UDC     C614944   6.499   7.066  18.268 -0.6698  0.5522  0.1792
 1359UDC     C714945   6.625   7.147  18.314 -0.6396 -0.1091  0.6147
 1359UDC     C814946   6.731   7.138  18.197 -0.3399 -0.4199 -0.2498
 1359UDC     C914947   6.806   7.000  18.179 -1.1730  0.1195  0.7226
 1359UDC    C1014948   6.907   6.965  18.285 -0.5133  0.5283 -0.5288
 1359UDC    C1114949   7.026   7.062  18.325 -0.9297  0.7255  0.3744
 1360UDC     C114950  10.030  17.581   4.199 -0.5008 -0.7454  0.0598
 1360UDC     C214951  10.142  17.668   4.265 -0.3517  0.0246  0.1496
 1360UDC     C314952  10.279  17.654   4.195 -0.3964  0.7516  0.0974
 1360UDC     C414953  10.280  17.673   4.042  0.2987 -0.1946  0.0103
 1360UDC     C514954  10.421  17.696   3.986 -1.4610 -0.2763 -0.4467
 1360UDC     C614955  10.443  17.772   3.862  0.4777 -0.8612 -0.3897
 1360UDC     C714956  10.418  17.718   3.719 -0.4357 -0.7313  0.2519
 1360UDC     C814957  10.453  17.816   3.606 -0.5459 -0.6388 -1.3673
 1360UDC     C914958  10.399  17.777   3.469  0.6163  0.4323 -0.6233
 1360UDC    C1014959  10.426  17.898   3.379 -0.6538  0.3747 -0.2742
 1360UDC    C1114960  10.354  18.032   3.411  0.2379  0.5426  0.6976
 1361UDC     C114961  10.699   8.625   0.610 -0.6345 -0.8624 -0.1478
 1361UDC     C214962  10.703   8.774   0.561 -1.0643  0.2128  0.9879
 1361UDC     C314963  10.827   8.845   0.614  0.6609 -0.1950 -0.7750
 1361UDC     C414964  10.839   8.993   0.562  0.6486  0.0392 -0.3228
 1361UDC     C514965  10.943   9.004   0.445 -0.6304  0.1511  0.4876
 1361UDC     C614966  11.085   9.026   0.502 -0.1812  0.7370  0.3329
 1361UDC     C714967  11.197   9.057   0.396 -0.5689  0.2449 -0.8998
 1361UDC     C814968  11.327   9.110   0.467 -0.1133  0.7696  0.6896
 1361UDC     C914969  11.413   9.013   0.554  0.7828  0.5365  0.3800
 1361UDC    C1014970  11.537   8.952   0.489 -0.6011 -0.1516  0.6356
 1361UDC    C1114971  11.652   8.869   0.559 -0.8708 -0.3330 -0.3276
 1362UDC     C114972   1.031   6.211   0.599 -0.3982  1.3032 -0.4935
 1362UDC     C214973   1.138   6.280   0.684 -1.3619  0.1262  0.7358
 1362UDC     C314974   1.240   6.173   0.736  2.1120  0.2899  0.1459
 1362UDC     C414975   1.278   6.047   0.657 -0.8089  0.4298  0.3845
 1362UDC     C514976   1.420   6.033   0.596  1.1923 -0.9350 -0.2099
 1362UDC     C614977   1.444   5.889   0.563 -0.0630 -0.7162 -1.1341
 1362UDC     C714978   1.367   5.849   0.438 -0.2447  0.5414 -0.4161
 1362UDC     C814979   1.364   5.693   0.432  0.9852  0.3508 -0.6721
 1362UDC     C914980   1.226   5.646   0.377  0.6646 -0.3277 -0.5983
 1362UDC    C1014981   1.194   5.508   0.429 -0.8284 -0.0689  0.3672
 1362UDC    C1114982   1.157   5.483   0.573  0.2863  0.4005  0.6781
 1363UDC     C114983  14.450   5.404   7.784 -0.0841  0.3378 -0.6231
 1363UDC     C214984  14.486   5.541   7.729  1.3646  1.5966 -0.4138
 1363UDC     C314985  14.624   5.533   7.664 -0.8613 -0.3152 -0.5706
 1363UDC     C414986  14.665   5.669   7.591  0.0068  0.4734  0.1004
 1363UDC     C514987  14.697   5.793   7.679  1.3192 -0.0354  0.3896
 1363UDC     C614988  14.774   5.899   7.600 -0.0610 -0.1770  0.2479
 1363UDC     C714989  14.860   5.982   7.699 -0.2646  0.3876  0.2822
 1363UDC     C814990  14.893   5.887   7.822  1.0299 -0.8577 -0.8775
 1363UDC     C914991  14.956   5.967   7.935 -0.1676 -1.3537 -0.7222
 1363UDC    C1014992  15.106   5.991   7.908  0.0980  0.7731  0.1400
 1363UDC    C1114993  15.170   6.068   8.017  0.5140 -1.1625  0.3470
 1364UDC     C114994   1.062   6.796   6.526  0.3444  0.2893 -0.3239
 1364UDC     C214995   1.063   6.710   6.656 -0.1129  0.0678 -0.5330
 1364UDC     C314996   0.944   6.705   6.758 -0.0028 -0.4745 -0.3641
 1364UDC     C414997   0.947   6.571   6.830  1.0600 -0.0088 -0.3717
 1364UDC     C514998   0.822   6.579   6.925 -0.4163  0.6246 -0.0290
 1364UDC     C614999   0.815   6.710   7.006  0.4678  0.1177 -0.3812
 1364UDC     C715000   0.703   6.716   7.118 -0.2159  1.4483 -0.7700
 1364UDC     C815001   0.682   6.855   7.182 -0.4856 -0.0472  0.4660
 1364UDC     C915002   0.550   6.876   7.255  0.7506  0.0408  0.1859
 1364UDC    C1015003   0.511   7.009   7.321  1.0678  0.6434  1.0003
 1364UDC    C1115004   0.366   7.025   7.366  0.5117  0.2563  0.0484
 1365UDC     C115005  19.915  11.449   1.739  0.8120 -0.7581  1.2281
 1365UDC     C215006  20.054  11.393   1.713  0.8644  0.5013 -1.2632
 1365UDC     C315007  20.122  11.462   1.599  0.3080 -0.4258  0.5317
 1365UDC     C415008  20.254  11.390   1.563 -0.8798 -0.7517  1.0555
 1365UDC     C515009  20.241  11.247   1.501 -0.3451  0.5380  1.1011
 1365UDC     C615010  20.307  11.209   1.368  0.5581  0.1855 -0.5400
 1365UDC     C715011  20.312  11.064   1.333 -0.7986  0.4599 -0.3603
 1365UDC     C815012  20.176  11.003   1.334  0.6275  1.5143  0.0149
 1365UDC     C915013  20.176  10.847   1.309  0.3767  0.7655 -0.3278
 1365UDC    C1015014  20.207  10.818   1.160  1.5454  0.0661 -0.2542
 1365UDC    C1115015  20.168  10.679   1.109  0.3738 -0.5385  1.2429
 1366UDC     C115016   1.589   7.808   6.419 -0.4401  0.8605 -0.3128
 1366UDC     C215017   1.647   7.943   6.422 -0.1943 -0.7261 -0.5576
 1366UDC     C315018   1.797   7.937   6.453 -0.6653 -0.0465  0.4266
 1366UDC     C415019   1.826   7.904   6.599 -1.2210  0.3852 -0.5303
 1366UDC     C515020   1.977   7.922   6.626 -0.3573  0.1622 -0.2445
 1366UDC     C615021   2.059   7.834   6.723 -0.1250  1.1584  0.4909
 1366UDC     C715022   2.126   7.713   6.654  0.9714 -0.0552  0.5190
 1366UDC     C815023   2.206   7.608   6.739  0.4879 -0.1516  0.6819
 1366UDC     C915024   2.307   7.673   6.828 -0.7966  0.5017  0.6085
 1366UDC    C1015025   2.287   7.703   6.980  0.6659 -0.1061  0.2669
 1366UDC    C1115026   2.411   7.779   7.037  0.6249 -0.4177 -0.6277
 1367UDC     C115027  16.000  10.266  17.454  1.0076 -0.0526 -0.1105
 1367UDC     C215028  15.871  10.193  17.481 -0.0982  0.5010  0.3242
 1367UDC     C315029  15.818  10.111  17.359 -0.2332 -0.1673  0.5896
 1367UDC     C415030  15.682  10.060  17.385  0.5569  0.1659  0.1322
 1367UDC     C515031  15.610   9.977  17.279  0.1729  0.4991  0.2351
 1367UDC     C615032  15.690   9.871  17.198 -0.5030  0.6122  0.1107
 1367UDC     C715033  15.599   9.770  17.133  1.4900 -0.3462 -0.4633
 1367UDC     C815034  15.669   9.669  17.048  0.2374  0.3386  0.3877
 1367UDC     C915035  15.636   9.538  17.118  0.9280 -0.0228  0.2155
 1367UDC    C1015036  15.476   9.506  17.108 -0.1174  0.1937 -0.1379
 1367UDC    C1115037  15.443   9.383  17.186  0.2215 -0.1690 -0.4680
 1368UDC     C115038  19.700  13.931   2.371 -0.6984  0.2031  0.8922
 1368UDC     C215039  19.835  13.883   2.436 -0.9746 -1.1922 -0.0943
 1368UDC     C315040  19.830  13.800   2.570  0.1215  0.3914  0.3895
 1368UDC     C415041  19.745  13.881   2.674  0.4633  0.2723  0.1478
 1368UDC     C515042  19.811  13.852   2.809  0.3327 -1.0724 -0.4180
 1368UDC     C615043  19.788  13.959   2.923 -0.9732 -0.1691  0.4194
 1368UDC     C715044  19.709  13.918   3.042 -0.5526  0.1048 -0.4718
 1368UDC     C815045  19.755  13.945   3.184  0.7232 -0.7376 -0.3695
 1368UDC     C915046  19.883  13.885   3.245 -0.8724  0.2907  0.2725
 1368UDC    C1015047  19.865  13.734   3.260  0.3517  1.7059 -0.3355
 1368UDC    C1115048  19.990  13.686   3.330 -0.8034 -0.2766 -1.5342
 1369UDC     C115049  14.191   8.360  10.353 -0.4380  0.6106  0.1938
 1369UDC     C215050  14.330   8.304  10.294  0.9336  0.2717  0.3230
 1369UDC     C315051  14.314   8.224  10.159 -1.6936  0.8692 -0.6670
 1369UDC     C415052  14.245   8.084  10.158 -0.1426 -0.2131 -0.3427
 1369UDC     C515053  14.312   7.996  10.053 -0.3109 -0.4680  0.0357
 1369UDC     C615054  14.437   7.947  10.117  0.9301  0.0483  0.9746
 1369UDC     C715055  14.404   7.853  10.234 -0.1158  0.3903  0.4688
 1369UDC     C815056  14.538   7.772  10.262  0.4748  0.7898 -0.2712
 1369UDC     C915057  14.535   7.682  10.387 -0.0252  0.1143  0.2959
 1369UDC    C1015058  14.410   7.593  10.401 -0.9906  0.8173  0.3366
 1369UDC    C1115059  14.371   7.513  10.523  0.1935  0.2252  0.0424
 1370UDC     C115060  17.854   0.352   5.081  1.2837  0.6616 -0.0584
 1370UDC     C215061  17.802   0.367   4.936 -0.9569 -0.4539  0.2901
 1370UDC     C315062  17.676   0.287   4.890  0.2615 -0.0848 -0.1724
 1370UDC     C415063  17.674   0.243   4.744 -0.0254  0.4996  0.7694
 1370UDC     C515064  17.540   0.176   4.710 -0.0402 -0.3132 -0.2286
 1370UDC     C615065  17.542   0.160   4.554 -0.6375  0.4619  0.1028
 1370UDC     C715066  17.403   0.112   4.502 -0.2371 -0.0087  0.5286
 1370UDC     C815067  17.334   0.191   4.388  0.5838 -0.2469  0.2655
 1370UDC     C915068  17.180   0.202   4.403  0.0960  0.3955 -0.2463
 1370UDC    C1015069  17.117   0.058   4.409  0.0992 -0.9542 -0.7000
 1370UDC    C1115070  17.140  -0.011   4.276  0.4025 -0.2702  0.3210
 1371UDC     C115071   5.194   8.214   9.758 -0.3854 -0.8751 -1.1054
 1371UDC     C215072   5.306   8.113   9.771  0.1266 -0.1800  0.6012
 1371UDC     C315073   5.421   8.185   9.835 -0.3761  0.1800  0.0022
 1371UDC     C415074   5.547   8.098   9.842  0.2426  0.4750 -1.0195
 1371UDC     C515075   5.674   8.194   9.851 -0.6047 -0.0584 -0.3978
 1371UDC     C615076   5.715   8.246   9.716  0.0840  0.7994  0.6554
 1371UDC     C715077   5.867   8.258   9.686 -0.6144 -0.1234 -0.2335
 1371UDC     C815078   5.923   8.117   9.690  0.6230  0.6904  0.7029
 1371UDC     C915079   6.077   8.112   9.682 -0.2112 -0.5511 -0.4802
 1371UDC    C1015080   6.147   8.038   9.801 -0.2994 -0.2949  0.0203
 1371UDC    C1115081   6.116   8.136   9.918 -0.4977  0.4434 -0.1978
 1372UDC     C115082  19.882   0.152   5.961 -0.1693 -0.9761 -0.0799
 1372UDC     C215083  19.777   0.263   5.919  1.0256  0.5000 -0.4799
 1372UDC     C315084  19.846   0.395   5.867  0.8032  1.8703 -0.2587
 1372UDC     C415085  19.918   0.456   5.987 -0.0878  0.3543  0.9149
 1372UDC     C515086  20.003   0.578   5.952 -0.7320  0.2312  0.6620
 1372UDC     C615087  19.980   0.706   6.031 -0.0309 -0.3434 -0.1317
 1372UDC     C715088  20.096   0.795   6.079  0.8941 -0.8530 -0.5773
 1372UDC     C815089  20.196   0.705   6.152  0.6046  0.4219 -0.3112
 1372UDC     C915090  20.258   0.783   6.269 -1.6508  1.1156 -0.6357
 1372UDC    C1015091  20.296   0.702   6.403 -0.0483 -0.3887 -1.2862
 1372UDC    C1115092  20.323   0.794   6.523 -0.2540 -0.2306 -0.2780
 1373UDC     C115093  18.779  10.103  12.412  0.6380  0.4990 -0.9255
 1373UDC     C215094  18.896  10.129  12.324 -0.4003  0.0807  0.5404
 1373UDC     C315095  18.855  10.189  12.182  0.6160  0.8609 -0.2147
 1373UDC     C415096  18.868  10.339  12.161  0.6110 -0.4563  0.6138
 1373UDC     C515097  18.773  10.431  12.074  0.6002  0.5346  0.0912
 1373UDC     C615098  18.797  10.574  12.053  1.3851 -0.5106  0.0937
 1373UDC     C715099  18.938  10.626  12.052  0.1378 -0.6294 -0.2372
 1373UDC     C815100  18.953  10.762  12.109 -0.4429 -0.6201 -0.5524
 1373UDC     C915101  19.078  10.851  12.077 -0.0842  0.7821 -1.1040
 1373UDC    C1015102  19.102  10.833  11.927  0.0043 -0.1789  0.5125
 1373UDC    C1115103  19.207  10.941  11.892 -0.4510 -0.5981  0.3281
 1374UDC     C115104  10.939  13.773  14.205 -0.4143 -0.1461  0.2648
 1374UDC     C215105  10.927  13.760  14.352 -0.0978 -0.6239 -0.2249
 1374UDC     C315106  11.016  13.871  14.414 -0.3949 -0.0154  0.0041
 1374UDC     C415107  11.160  13.837  14.364 -1.0409  0.6443  1.1660
 1374UDC     C515108  11.251  13.956  14.328 -0.4650  0.8004 -0.2773
 1374UDC     C615109  11.394  13.908  14.302 -0.1402 -0.5565  0.2221
 1374UDC     C715110  11.420  13.817  14.184  0.2413  0.9814 -0.6416
 1374UDC     C815111  11.537  13.718  14.221 -0.4216 -0.5252  0.2380
 1374UDC     C915112  11.531  13.576  14.161  0.1807  0.2733  0.1480
 1374UDC    C1015113  11.400  13.498  14.163  1.1410 -0.8525 -0.1585
 1374UDC    C1115114  11.359  13.427  14.290 -0.4338 -0.0199 -0.9261
 1375UDC     C115115  11.740  19.862  13.252  0.1472  0.0512  0.0709
 1375UDC     C215116  11.770  19.773  13.139  0.1397  0.2254  0.0905
 1375UDC     C315117  11.878  19.815  13.046 -0.2366 -0.0156  0.3914
 1375UDC     C415118  12.007  19.868  13.114 -1.3290 -0.1035 -0.1577
 1375UDC     C515119  12.126  19.872  13.012  0.1531  0.4150  0.4417
 1375UDC     C615120  12.246  19.958  13.050 -0.2193  0.3004  0.0091
 1375UDC     C715121  12.374  19.974  12.964  0.6089 -0.3335 -0.1461
 1375UDC     C815122  12.359  19.999  12.817  0.1431  0.2019 -0.0810
 1375UDC     C915123  12.494  20.038  12.746 -0.5200  0.2659 -0.3203
 1375UDC    C1015124  12.586  19.918  12.784 -0.0081  0.2152 -0.4929
 1375UDC    C1115125  12.740  19.928  12.760  0.6749 -0.8961  0.3176
 1376UDC     C115126  12.807  17.828  13.197 -0.1547  0.7626  0.5624
 1376UDC     C215127  12.859  17.705  13.270  0.0519  0.8964 -0.6175
 1376UDC     C315128  12.817  17.570  13.212  0.0492 -0.1090 -0.4870
 1376UDC     C415129  12.672  17.579  13.176  0.3092  0.0141  0.6115
 1376UDC     C515130  12.622  17.444  13.113  1.0397 -1.5006  0.6121
 1376UDC     C615131  12.479  17.450  13.044  1.1629  1.1428 -0.2101
 1376UDC     C715132  12.356  17.477  13.137  0.2641 -0.5348  0.0338
 1376UDC     C815133  12.230  17.502  13.042  0.2872  1.4031  0.6764
 1376UDC     C915134  12.097  17.458  13.117  0.7014 -0.4251 -1.1229
 1376UDC    C1015135  12.088  17.301  13.136  0.0773 -0.1557 -0.7683
 1376UDC    C1115136  12.002  17.272  13.253  0.5641 -0.6462  0.0079
 1377UDC     C115137  17.651   5.160   7.015 -0.1006  0.0137 -0.0094
 1377UDC     C215138  17.804   5.205   6.990  0.6264  0.8210 -0.6956
 1377UDC     C315139  17.835   5.149   6.846  0.6483 -0.2007  0.0069
 1377UDC     C415140  17.983   5.192   6.827  0.4585 -0.2494  0.1318
 1377UDC     C515141  18.024   5.128   6.692  0.2075 -0.2053  0.5374
 1377UDC     C615142  18.164   5.175   6.632  0.9094  0.7336 -1.2009
 1377UDC     C715143  18.244   5.059   6.579 -0.9673  0.3153 -0.1604
 1377UDC     C815144  18.396   5.078   6.598  0.1492  0.0464 -0.0486
 1377UDC     C915145  18.466   4.969   6.516  0.7076  1.4081  0.6631
 1377UDC    C1015146  18.615   4.946   6.532  0.9563 -0.0124  1.1012
 1377UDC    C1115147  18.675   4.833   6.444 -0.2954 -0.6643 -0.1468
 1378UDC     C115148   5.182  16.235  10.186 -0.3791  0.0648 -0.3036
 1378UDC     C215149   5.164  16.106  10.107 -0.0987 -0.1349  0.6717
 1378UDC     C315150   5.200  15.980  10.177  0.9681  0.9729 -0.6134
 1378UDC     C415151   5.150  15.972  10.318 -0.4897 -0.2819 -0.8274
 1378UDC     C515152   5.096  15.839  10.379 -0.0291  0.0137  0.4204
 1378UDC     C615153   5.060  15.855  10.526 -0.1361 -0.5303 -0.2660
 1378UDC     C715154   4.921  15.914  10.528  0.5293  0.1357  0.5479
 1378UDC     C815155   4.894  16.022  10.625  0.2358  0.5196 -0.5501
 1378UDC     C915156   4.875  15.968  10.771 -0.1901 -0.6320 -0.0293
 1378UDC    C1015157   4.932  16.054  10.885  0.1496  0.7437 -0.0677
 1378UDC    C1115158   4.938  15.953  11.006  0.7018  0.1115 -0.1590
 1379UDC     C115159   2.634  10.867   3.081  0.0751 -0.5510  0.4210
 1379UDC     C215160   2.755  10.804   3.154  0.1012 -0.8004  0.2421
 1379UDC     C315161   2.880  10.886   3.145  0.5186 -0.2041  0.2104
 1379UDC     C415162   2.964  10.868   3.022  0.8725  0.8338 -1.1736
 1379UDC     C515163   3.062  10.973   2.960  0.3619  0.7582 -0.5231
 1379UDC     C615164   3.117  10.918   2.827  0.7588 -1.2112  1.2988
 1379UDC     C715165   3.255  10.851   2.848  0.6199  0.8450 -0.5248
 1379UDC     C815166   3.380  10.927   2.887  0.3291 -0.3453 -0.6831
 1379UDC     C915167   3.431  11.055   2.810 -0.0232 -0.7968  0.1113
 1379UDC    C1015168   3.561  11.110   2.858 -0.1928  0.3285  0.7307
 1379UDC    C1115169   3.601  11.250   2.808  0.3111  0.3378 -0.6925
 1380UDC     C115170  10.735  13.076   8.770 -0.5616  0.0889 -0.1437
 1380UDC     C215171  10.807  12.984   8.869 -0.5898  0.6070 -0.5184
 1380UDC     C315172  10.906  12.886   8.811 -0.6885  0.0128 -0.6054
 1380UDC     C415173  10.842  12.772   8.723  0.0273 -0.9630 -0.8210
 1380UDC     C515174  10.931  12.668   8.662 -0.2029  0.2615 -0.1624
 1380UDC     C615175  11.061  12.708   8.612 -0.1230  0.2593 -0.7125
 1380UDC     C715176  11.135  12.593   8.547  0.0652  0.6243  0.2712
 1380UDC     C815177  11.135  12.459   8.617  0.9258 -0.4216  0.0362
 1380UDC     C915178  11.219  12.370   8.526 -1.7031  0.0818  0.7082
 1380UDC    C1015179  11.223  12.405   8.371  0.1086  0.1295 -0.8321
 1380UDC    C1115180  11.303  12.301   8.289 -0.3748 -0.4120 -1.0198
 1381UDC     C115181  19.419   0.917  16.580 -0.5662  0.6501 -0.8636
 1381UDC     C215182  19.286   0.863  16.554  0.1280  0.4918  0.7389
 1381UDC     C315183  19.178   0.963  16.503  0.7170 -0.6946 -0.1547
 1381UDC     C415184  19.121   1.047  16.621 -0.6255  0.1364  0.2215
 1381UDC     C515185  18.994   1.116  16.608 -0.3422 -0.5215 -0.6737
 1381UDC     C615186  18.954   1.192  16.738  0.1016 -0.2875  0.4599
 1381UDC     C715187  18.905   1.100  16.843  0.3754  0.4029 -0.8467
 1381UDC     C815188  18.773   1.043  16.808 -0.0174  0.8346  0.8176
 1381UDC     C915189  18.752   0.918  16.891 -0.0498 -0.3517 -0.4346
 1381UDC    C1015190  18.623   0.834  16.877  0.9602  1.5312  0.0578
 1381UDC    C1115191  18.482   0.897  16.863 -1.3735 -0.2477 -0.5456
 1382UDC     C115192  13.416  11.755   5.323  0.5338 -0.2685  0.2107
 1382UDC     C215193  13.482  11.794   5.183 -0.4350  0.3943 -0.6242
 1382UDC     C315194  13.387  11.847   5.075 -1.7225  0.0357  0.0786
 1382UDC     C415195  13.295  11.746   5.004 -0.1284  0.1601  0.3979
 1382UDC     C515196  13.225  11.819   4.892 -0.1494  0.1972  0.6173
 1382UDC     C615197  13.152  11.950   4.923  1.1871 -0.2723 -0.5397
 1382UDC     C715198  13.025  11.909   5.001 -0.1096  0.2261  0.0496
 1382UDC     C815199  12.919  12.011   5.046 -0.1896  0.1028 -0.1744
 1382UDC     C915200  12.974  12.123   5.139 -0.0625 -0.4024 -0.7623
 1382UDC    C1015201  13.009  12.250   5.068  0.6054 -0.5602 -0.7225
 1382UDC    C1115202  13.076  12.353   5.159  0.1252 -0.0272 -0.6115
 1383UDC     C115203  17.448   3.914   3.415  0.3224 -0.0945  0.1247
 1383UDC     C215204  17.353   3.818   3.345 -0.9897  0.2325  0.0933
 1383UDC     C315205  17.255   3.864   3.241  1.0833 -0.6365  0.0873
 1383UDC     C415206  17.310   3.908   3.105 -0.1531  0.4750 -0.0329
 1383UDC     C515207  17.202   3.982   3.035 -0.5644  0.2214  0.2419
 1383UDC     C615208  17.253   4.083   2.927 -0.3727 -0.3710 -0.9134
 1383UDC     C715209  17.229   4.048   2.780 -0.1999 -0.5493 -0.1570
 1383UDC     C815210  17.347   4.067   2.678  0.8204  0.2265 -0.2900
 1383UDC     C915211  17.344   3.943   2.579 -0.7919  0.0581  1.3767
 1383UDC    C1015212  17.468   3.847   2.580 -0.5756  0.9311  0.2699
 1383UDC    C1115213  17.405   3.698   2.605  0.7686  0.3757  1.0031
 1384UDC     C115214   4.922   4.543   9.275 -0.5331  0.5314 -0.4544
 1384UDC     C215215   4.807   4.647   9.277  0.4221  0.0783 -0.6600
 1384UDC     C315216   4.802   4.737   9.151  0.3538 -0.4286  0.5150
 1384UDC     C415217   4.726   4.672   9.034 -0.1538  0.1100 -1.1260
 1384UDC     C515218   4.722   4.749   8.899  0.8865 -1.1804  0.3579
 1384UDC     C615219   4.686   4.659   8.781  0.5508  0.8041  0.0540
 1384UDC     C715220   4.535   4.617   8.780  0.2396  0.2101 -1.1428
 1384UDC     C815221   4.447   4.730   8.743  0.8430 -0.8630 -1.2771
 1384UDC     C915222   4.435   4.761   8.596 -0.5838 -0.0579 -0.3782
 1384UDC    C1015223   4.331   4.870   8.578  0.2753  0.8674  0.5986
 1384UDC    C1115224   4.313   4.925   8.432  0.4020  0.1600 -0.7285
 1385UDC     C115225  15.018   8.495   3.830 -1.1254  0.4881  0.3286
 1385UDC     C215226  15.007   8.355   3.770  1.1535  0.0959 -0.0945
 1385UDC     C315227  14.915   8.324   3.647  0.6303 -0.0694  0.3208
 1385UDC     C415228  14.937   8.174   3.616  0.5825 -0.1361 -0.3332
 1385UDC     C515229  14.937   8.110   3.479  0.6394 -0.6142 -0.3233
 1385UDC     C615230  15.059   8.022   3.444 -0.9424  0.0987 -0.5909
 1385UDC     C715231  15.024   7.874   3.435 -0.4305  0.2157  0.3953
 1385UDC     C815232  14.953   7.816   3.316  0.2987 -0.3031 -0.5181
 1385UDC     C915233  14.924   7.666   3.338  1.4164 -1.2828 -0.1949
 1385UDC    C1015234  15.041   7.571   3.317  0.0174  0.0067  0.7816
 1385UDC    C1115235  15.022   7.430   3.367  0.2094  0.8592  0.5242
 1386UDC     C115236  11.070  14.875   9.973  0.1328  0.2264 -0.2470
 1386UDC     C215237  11.219  14.857   9.946 -0.1509 -0.8878  0.8386
 1386UDC     C315238  11.309  14.912  10.059  0.9720  0.4989  0.0219
 1386UDC     C415239  11.364  14.817  10.169  0.2017 -0.8751  0.6145
 1386UDC     C515240  11.483  14.884  10.238  0.1416 -0.2531  0.8841
 1386UDC     C615241  11.517  14.800  10.364 -0.4398 -0.3457 -0.6539
 1386UDC     C715242  11.581  14.662  10.339  0.4287  0.3528  0.4490
 1386UDC     C815243  11.648  14.593  10.462 -0.0245 -1.1922 -0.9978
 1386UDC     C915244  11.785  14.653  10.503  0.2870  0.2152  0.6684
 1386UDC    C1015245  11.836  14.566  10.623  0.4968 -0.7104 -0.1973
 1386UDC    C1115246  11.746  14.517  10.738  0.1409 -0.0630 -0.1600
 1387UDC     C115247   8.550   9.244  15.093 -0.4971 -0.4203  0.1969
 1387UDC     C215248   8.672   9.290  15.010  0.1298 -0.2562  0.3934
 1387UDC     C315249   8.711   9.214  14.882 -1.0602  0.8149  0.6036
 1387UDC     C415250   8.868   9.232  14.859  0.3332  0.2264 -0.3548
 1387UDC     C515251   8.935   9.141  14.751  0.9935  0.6491 -0.3559
 1387UDC     C615252   9.079   9.080  14.788 -0.4416  0.9627 -1.5540
 1387UDC     C715253   9.178   9.199  14.760  0.4011 -0.6988 -0.7528
 1387UDC     C815254   9.326   9.179  14.796  0.2126  0.0381 -0.0458
 1387UDC     C915255   9.410   9.304  14.796  0.0288 -0.3951  0.5327
 1387UDC    C1015256   9.408   9.395  14.676 -0.7749 -0.1920 -0.1219
 1387UDC    C1115257   9.461   9.306  14.564 -0.6615  0.1756 -0.5219
 1388UDC     C115258  11.423   5.442  17.082  0.1565  0.0434 -0.4733
 1388UDC     C215259  11.310   5.473  16.983  0.6016 -0.1419 -0.3028
 1388UDC     C315260  11.185   5.520  17.060  0.3779  0.8652 -0.6301
 1388UDC     C415261  11.190   5.658  17.134  0.2716  0.1807  0.5115
 1388UDC     C515262  11.249   5.680  17.276  1.5776  0.3489  0.7004
 1388UDC     C615263  11.325   5.808  17.303  0.6357 -1.3363 -0.8222
 1388UDC     C715264  11.348   5.838  17.447  0.5922 -1.9164  0.4940
 1388UDC     C815265  11.388   5.983  17.481 -0.7244 -0.3721  0.2274
 1388UDC     C915266  11.428   6.003  17.622  0.0602  0.2383 -0.9077
 1388UDC    C1015267  11.470   6.150  17.653  1.2118  0.8619  0.5781
 1388UDC    C1115268  11.582   6.178  17.560 -0.2714  0.3596  0.1719
 1389UDC     C115269   3.445   8.091   0.797  0.0679  0.4096 -0.1704
 1389UDC     C215270   3.531   7.999   0.706 -1.3362  0.3805  0.2942
 1389UDC     C315271   3.453   7.891   0.639  0.9138  0.4642  0.1764
 1389UDC     C415272   3.511   7.831   0.510  0.0576  1.0332  0.6035
 1389UDC     C515273   3.590   7.702   0.556 -0.4219  0.3511  0.9713
 1389UDC     C615274   3.498   7.599   0.624 -0.0694 -0.2139 -1.0088
 1389UDC     C715275   3.558   7.461   0.619 -0.3605 -0.2102 -0.2929
 1389UDC     C815276   3.553   7.421   0.473 -0.9320  0.2245 -0.0960
 1389UDC     C915277   3.414   7.445   0.405  0.6841 -0.0862  0.5532
 1389UDC    C1015278   3.403   7.402   0.254 -0.2068  0.2636  0.4881
 1389UDC    C1115279   3.426   7.497   0.135 -0.4192  0.0805 -0.2311
 1390UDC     C115280  18.060  12.153  18.924  0.2091  0.5148  0.6442
 1390UDC     C215281  18.086  12.178  19.067  0.0011 -0.0414  0.8373
 1390UDC     C315282  17.969  12.128  19.161  0.6674 -0.8548 -0.6295
 1390UDC     C415283  17.979  11.983  19.201  1.2919  0.8151  0.3376
 1390UDC     C515284  17.875  11.929  19.300  0.1243  0.1213  0.3129
 1390UDC     C615285  17.891  11.787  19.325 -0.3806  0.6836 -0.4736
 1390UDC     C715286  17.892  11.713  19.189  0.2730 -0.0460 -1.1210
 1390UDC     C815287  17.881  11.556  19.195 -0.2582  0.9009  0.7577
 1390UDC     C915288  17.953  11.506  19.070 -1.0537  0.6231 -0.4815
 1390UDC    C1015289  17.986  11.358  19.061 -0.8345 -1.2339 -0.9170
 1390UDC    C1115290  18.103  11.337  18.956  0.6557  0.5685 -0.6276
 1391UDC     C115291   4.761  11.079   4.649 -1.4975  0.2620 -0.8504
 1391UDC     C215292   4.617  11.030   4.638  0.2957 -0.0017  0.3490
 1391UDC     C315293   4.615  10.882   4.596 -0.2483 -1.2485 -0.1889
 1391UDC     C415294   4.485  10.804   4.602 -0.3713 -0.2180 -0.2549
 1391UDC     C515295   4.521  10.655   4.582  1.7479  0.0900  0.8939
 1391UDC     C615296   4.408  10.552   4.555 -0.7659  0.0236 -0.2080
 1391UDC     C715297   4.439  10.415   4.489  0.0575  1.2742  0.1860
 1391UDC     C815298   4.298  10.364   4.446 -0.6451  0.6354 -0.2485
 1391UDC     C915299   4.301  10.247   4.344  0.8179 -1.0556  0.2428
 1391UDC    C1015300   4.174  10.253   4.266 -0.0125  0.0387 -0.3073
 1391UDC    C1115301   4.171  10.338   4.142 -0.0336 -0.7917 -0.3441
 1392UDC     C115302   0.185   1.163  13.484  0.5363 -0.2185 -0.5705
 1392UDC     C215303   0.240   1.308  13.503  0.7426  0.6374 -0.4629
 1392UDC     C315304   0.294   1.338  13.642 -0.0484  0.5755  0.8843
 1392UDC     C415305   0.201   1.325  13.764  0.1129 -0.6868 -0.2642
 1392UDC     C515306   0.264   1.327  13.903 -0.3067 -0.1567  0.5054
 1392UDC     C615307   0.327   1.202  13.975  0.2696 -0.5129 -1.2641
 1392UDC     C715308   0.234   1.078  13.973  0.7003  0.4231  0.5319
 1392UDC     C815309   0.306   0.954  14.020 -0.2611 -1.4538  0.8423
 1392UDC     C915310   0.447   0.957  13.958  0.5938 -0.0398  0.2469
 1392UDC    C1015311   0.543   0.846  14.011 -0.4328  0.5194  0.1004
 1392UDC    C1115312   0.524   0.866  14.167  0.8668  0.6839  0.9096
 1393UDC     C115313  18.047   2.858   1.626 -0.2012  0.2145 -1.1832
 1393UDC     C215314  18.123   2.756   1.535  0.0641  0.7034  0.3643
 1393UDC     C315315  18.238   2.830   1.469  0.6260 -0.9660 -0.0801
 1393UDC     C415316  18.326   2.758   1.364 -0.4591 -0.5117 -0.8158
 1393UDC     C515317  18.382   2.632   1.424  0.2465  0.6747  0.1029
 1393UDC     C615318  18.509   2.645   1.505 -0.7298 -0.9714  0.7124
 1393UDC     C715319  18.541   2.747   1.615  0.6809  0.2102 -0.3462
 1393UDC     C815320  18.588   2.679   1.750  0.5360  0.9101 -0.1435
 1393UDC     C915321  18.483   2.629   1.848 -0.0057 -0.4390  0.4277
 1393UDC    C1015322  18.387   2.526   1.779  0.3092  0.0396  0.7170
 1393UDC    C1115323  18.324   2.437   1.888  0.9001 -0.6158 -0.6334
 1394UDC     C115324  18.713   3.395   8.839  0.8920  1.1255 -0.3157
 1394UDC     C215325  18.854   3.381   8.882  0.6059  0.1814 -1.2089
 1394UDC     C315326  18.874   3.390   9.037 -0.7758  0.0741  0.6473
 1394UDC     C415327  19.015   3.347   9.073 -1.2186  0.3832  1.3190
 1394UDC     C515328  19.014   3.303   9.223 -0.6633 -0.5788 -0.5936
 1394UDC     C615329  18.962   3.160   9.228 -0.9177 -0.0972 -0.3614
 1394UDC     C715330  19.044   3.063   9.139 -0.0654 -0.2054  0.0797
 1394UDC     C815331  19.029   2.930   9.216  0.4052  0.1888 -1.1696
 1394UDC     C915332  18.977   2.944   9.362  0.3932 -0.3005 -0.1338
 1394UDC    C1015333  18.942   2.814   9.437  0.2491  0.9797 -0.2455
 1394UDC    C1115334  18.834   2.727   9.362  0.5934  0.5058  0.1901
 1395UDC     C115335   3.885  12.988   3.675 -0.7010  0.3274 -0.5294
 1395UDC     C215336   3.795  13.084   3.601  0.0200  0.5619 -0.8048
 1395UDC     C315337   3.671  12.997   3.558  0.2589 -0.9886  1.5878
 1395UDC     C415338   3.570  13.093   3.489  0.9082  0.1502  0.2208
 1395UDC     C515339   3.432  13.036   3.439  0.6775  0.4434 -0.3544
 1395UDC     C615340   3.319  13.141   3.452  0.9713  0.0787 -0.6360
 1395UDC     C715341   3.268  13.166   3.591  0.5525 -0.3308  0.2157
 1395UDC     C815342   3.156  13.277   3.578 -0.2275  1.0287 -1.3922
 1395UDC     C915343   3.131  13.349   3.722  0.9275  0.4679  0.0604
 1395UDC    C1015344   3.248  13.426   3.778 -0.3138  0.9808  0.1218
 1395UDC    C1115345   3.209  13.497   3.906  0.9330 -0.2004  0.8317
 1396UDC     C115346   4.041   5.784  10.162 -0.2474  0.1516  0.9965
 1396UDC     C215347   4.049   5.843  10.299  1.1809 -0.1232  0.0823
 1396UDC     C315348   4.132   5.782  10.401 -0.5460 -0.6887 -1.1479
 1396UDC     C415349   4.159   5.896  10.497 -0.3698  0.9644 -0.9227
 1396UDC     C515350   4.252   5.853  10.616 -0.1959 -0.1969 -0.1516
 1396UDC     C615351   4.299   5.970  10.704  0.0144 -0.4099  0.3101
 1396UDC     C715352   4.405   6.058  10.617  0.4112  0.5551 -0.0350
 1396UDC     C815353   4.490   6.130  10.722  0.2229  0.9523  0.7117
 1396UDC     C915354   4.541   6.252  10.656 -0.6507 -0.5165 -0.0198
 1396UDC    C1015355   4.556   6.370  10.751  0.3038 -0.4440  0.5944
 1396UDC    C1115356   4.582   6.499  10.680 -0.0163  0.5534  1.1919
 1397UDC     C115357  17.583   9.339   4.447 -0.4109  1.3611  0.5669
 1397UDC     C215358  17.466   9.330   4.344 -0.4067  0.6594  0.7849
 1397UDC     C315359  17.500   9.330   4.190 -1.3721  0.2156 -0.5460
 1397UDC     C415360  17.380   9.269   4.115 -0.0132  0.9463 -0.0500
 1397UDC     C515361  17.395   9.279   3.967 -0.1243 -0.3467  0.0337
 1397UDC     C615362  17.263   9.233   3.903  0.2214  1.0421 -0.6349
 1397UDC     C715363  17.288   9.237   3.753 -0.7087 -0.3636 -0.9564
 1397UDC     C815364  17.155   9.225   3.668 -0.5279 -0.0849 -1.4662
 1397UDC     C915365  17.060   9.357   3.669 -0.0076  0.9298  0.3141
 1397UDC    C1015366  16.916   9.314   3.651  0.5099 -0.3851 -1.0447
 1397UDC    C1115367  16.883   9.219   3.543  0.3426  0.2675  0.5019
 1398UDC     C115368  15.350   1.515  14.144  0.6638  0.5757 -1.0851
 1398UDC     C215369  15.207   1.494  14.207 -0.3451  0.3905  0.1568
 1398UDC     C315370  15.182   1.354  14.281  0.7426  0.2197  1.0419
 1398UDC     C415371  15.078   1.258  14.211  0.5903 -0.4559  0.7755
 1398UDC     C515372  15.077   1.127  14.283  0.6384 -0.6654  0.5530
 1398UDC     C615373  14.974   1.016  14.259 -0.5229 -0.0826  0.4056
 1398UDC     C715374  14.942   0.966  14.111 -0.1923 -0.5985 -0.7661
 1398UDC     C815375  14.842   0.855  14.113 -0.8575 -0.0417  0.1128
 1398UDC     C915376  14.795   0.824  13.972  0.0341  0.5967  0.9579
 1398UDC    C1015377  14.837   0.690  13.909 -1.2963  0.8368 -0.5580
 1398UDC    C1115378  14.803   0.577  14.007  0.0014 -0.1101 -0.3075
 1399UDC     C115379   8.854   8.444   4.016  0.4387  0.0319  0.4742
 1399UDC     C215380   8.863   8.312   3.921 -0.3315 -1.0448 -0.6958
 1399UDC     C315381   8.782   8.325   3.800 -0.0405  0.6978  0.6004
 1399UDC     C415382   8.764   8.204   3.709  0.8270  0.2380  0.8968
 1399UDC     C515383   8.666   8.099   3.774 -1.3354 -0.0807  1.1537
 1399UDC     C615384   8.589   8.007   3.674 -0.8406  1.1732 -0.4680
 1399UDC     C715385   8.489   7.901   3.744 -0.2781 -0.4718 -0.0392
 1399UDC     C815386   8.339   7.944   3.757 -0.3340  0.0861  1.3438
 1399UDC     C915387   8.260   7.862   3.857 -0.2237  0.7373  0.7486
 1399UDC    C1015388   8.114   7.903   3.888 -0.2347 -0.4339  0.5111
 1399UDC    C1115389   8.021   7.794   3.953 -1.0019 -0.3581 -0.2228
 1400UDC     C115390  16.576  12.291  16.591  0.2316  0.8016  0.2002
 1400UDC     C215391  16.627  12.282  16.444 -0.4234 -0.3605  0.5152
 1400UDC     C315392  16.723  12.161  16.435 -0.9010  0.6850 -0.0593
 1400UDC     C415393  16.687  12.013  16.468  1.1791  1.2839  0.2094
 1400UDC     C515394  16.777  11.923  16.561 -0.0284 -0.1841  0.3081
 1400UDC     C615395  16.719  11.790  16.611 -1.2724  0.4429  0.2995
 1400UDC     C715396  16.815  11.721  16.707 -0.4792 -0.2998 -1.0270
 1400UDC     C815397  16.758  11.601  16.791  0.6337 -1.1570  1.2049
 1400UDC     C915398  16.874  11.537  16.866 -0.7575 -1.2837  0.7784
 1400UDC    C1015399  16.827  11.427  16.965 -0.1754  1.5206 -0.2137
 1400UDC    C1115400  16.674  11.393  16.957  1.1356 -0.2616 -0.6011
 1401UDC     C115401  15.641  15.359   4.584 -0.2812 -0.2681 -0.5890
 1401UDC     C215402  15.608  15.218   4.617  0.4726  0.0639  0.4464
 1401UDC     C315403  15.575  15.145   4.493  0.8856  0.5652 -0.8405
 1401UDC     C415404  15.590  14.989   4.532 -0.4672  0.1251  0.5095
 1401UDC     C515405  15.728  14.952   4.588  0.4454  0.7640  0.1227
 1401UDC     C615406  15.730  14.897   4.724 -0.6952 -1.3371 -0.9926
 1401UDC     C715407  15.870  14.829   4.750 -0.0406 -0.1530 -0.4159
 1401UDC     C815408  15.916  14.871   4.889  0.5357 -0.5273 -0.2306
 1401UDC     C915409  16.051  14.823   4.948 -0.6142 -0.4607  0.8022
 1401UDC    C1015410  16.177  14.893   4.901 -1.0131  0.8597  0.0144
 1401UDC    C1115411  16.249  14.951   5.023  0.5736 -0.1156 -0.0971
 1402UDC     C115412  19.743  17.672   7.208 -0.0126  0.9028 -0.2913
 1402UDC     C215413  19.682  17.549   7.125 -1.1249  0.2400 -0.0152
 1402UDC     C315414  19.531  17.556   7.092  0.3419  0.2911  0.2678
 1402UDC     C415415  19.483  17.540   7.234 -0.0095 -0.3765  0.0644
 1402UDC     C515416  19.330  17.529   7.214 -0.2485 -0.3921 -0.0657
 1402UDC     C615417  19.251  17.532   7.344  0.8540  0.4992 -0.3569
 1402UDC     C715418  19.262  17.679   7.392 -0.3986  0.2323 -0.6629
 1402UDC     C815419  19.142  17.765   7.353 -0.7944 -1.4793 -1.6580
 1402UDC     C915420  19.151  17.918   7.381  0.1079  0.1273  0.5652
 1402UDC    C1015421  19.233  17.994   7.268  1.7225  0.7568  0.4555
 1402UDC    C1115422  19.254  18.144   7.306 -0.5754  0.9779 -0.3491
 1403UDC     C115423   2.324  16.894   3.224  0.0286 -0.2474 -0.1692
 1403UDC     C215424   2.457  16.822   3.251 -0.2708 -0.6129 -0.6117
 1403UDC     C315425   2.446  16.708   3.354 -0.2105  0.2506 -1.7814
 1403UDC     C415426   2.349  16.602   3.325  0.2923  1.0628  1.1046
 1403UDC     C515427   2.310  16.507   3.443  0.3963  0.8230  0.0775
 1403UDC     C615428   2.266  16.371   3.386 -0.1399 -0.6808 -0.5061
 1403UDC     C715429   2.131  16.381   3.317 -0.4852 -0.6026  0.0700
 1403UDC     C815430   1.991  16.362   3.387 -0.3250 -0.5813  0.6520
 1403UDC     C915431   1.875  16.375   3.282 -0.0811 -0.8799  0.0367
 1403UDC    C1015432   1.740  16.378   3.337 -0.0559  1.0850  0.1937
 1403UDC    C1115433   1.641  16.427   3.228  0.6736 -0.3750  0.4939
 1404UDC     C115434   7.966   0.972   2.234  0.7581 -0.2223 -0.2887
 1404UDC     C215435   8.084   0.909   2.156 -0.0034  0.1934 -0.3738
 1404UDC     C315436   8.176   0.831   2.243  0.2828  1.3164  0.9546
 1404UDC     C415437   8.132   0.683   2.280  1.3868 -1.5785 -0.2894
 1404UDC     C515438   8.191   0.656   2.425 -0.8331  0.2862  0.5817
 1404UDC     C615439   8.180   0.506   2.456 -0.2891  0.0012 -0.1508
 1404UDC     C715440   8.215   0.445   2.601 -0.3761  0.5044  0.0126
 1404UDC     C815441   8.150   0.300   2.605 -0.7246 -0.1883 -0.6285
 1404UDC     C915442   8.145   0.224   2.740  0.1541  0.4885  0.6657
 1404UDC    C1015443   8.017   0.247   2.815  0.4187  0.9869 -0.2185
 1404UDC    C1115444   8.007   0.173   2.947  1.4342  0.7135 -0.5014
 1405UDC     C115445   0.747  12.046   4.678 -0.3277  0.1188  1.0614
 1405UDC     C215446   0.693  11.988   4.811  0.3426 -1.1438 -0.2981
 1405UDC     C315447   0.549  12.017   4.864  0.2282  0.5752  0.4601
 1405UDC     C415448   0.528  12.165   4.895  1.1400 -0.0438 -0.0519
 1405UDC     C515449   0.395  12.195   4.830  0.0974  0.3912 -0.3304
 1405UDC     C615450   0.265  12.159   4.914 -0.1733  0.0622 -0.1485
 1405UDC     C715451   0.250  12.242   5.043  1.3888  0.5513 -1.5639
 1405UDC     C815452   0.181  12.384   5.015 -0.7207  1.1894 -0.6148
 1405UDC     C915453   0.179  12.469   5.141 -0.1633  0.2520 -0.4739
 1405UDC    C1015454   0.120  12.410   5.279  0.5639  0.9026  0.5836
 1405UDC    C1115455   0.136  12.496   5.403 -0.2771  0.7791 -0.1552
 1406UDC     C115456  18.129  19.949  13.139  0.1021 -0.7350 -0.3077
 1406UDC     C215457  18.255  19.876  13.085 -0.6679 -0.1231 -0.2861
 1406UDC     C315458  18.386  19.904  13.163  0.5981 -0.6088 -0.3709
 1406UDC     C415459  18.477  19.809  13.081 -0.1855  0.0067  0.8665
 1406UDC     C515460  18.625  19.843  13.115 -0.7568  0.5112  0.0727
 1406UDC     C615461  18.723  19.728  13.102  0.3380  0.2595 -0.1626
 1406UDC     C715462  18.737  19.604  13.197  0.4497 -0.6970 -0.4512
 1406UDC     C815463  18.802  19.628  13.339  0.6878  1.0654 -0.1067
 1406UDC     C915464  18.826  19.515  13.446 -0.3176  0.0780 -0.1624
 1406UDC    C1015465  18.720  19.397  13.433  0.0627 -0.3040 -0.0414
 1406UDC    C1115466  18.773  19.263  13.499 -0.0748 -0.5692 -0.2709
 1407UDC     C115467   3.875  12.842  18.992 -0.2020  0.8200 -0.5174
 1407UDC     C215468   3.928  12.722  18.915 -1.0774 -0.5603  0.3017
 1407UDC     C315469   3.886  12.585  18.975 -0.3094  0.3315  0.5582
 1407UDC     C415470   3.952  12.557  19.116  0.5478 -0.8007 -0.3097
 1407UDC     C515471   3.884  12.462  19.215 -0.9167 -0.1685 -0.0620
 1407UDC     C615472   3.822  12.526  19.338 -0.1836 -0.2657  0.0880
 1407UDC     C715473   3.815  12.431  19.459 -0.0961  0.0765  0.3533
 1407UDC     C815474   3.744  12.512  19.572  0.2488  0.2971 -0.3900
 1407UDC     C915475   3.824  12.635  19.614  0.0822 -0.7829  0.3259
 1407UDC    C1015476   3.805  12.693  19.755  0.3880 -0.5209 -0.9437
 1407UDC    C1115477   3.890  12.813  19.784  1.4373 -0.0651 -0.1315
 1408UDC     C115478  16.239   5.245  14.981  0.3266  0.7210  0.7127
 1408UDC     C215479  16.364   5.243  14.887  0.4208  1.5609  0.2716
 1408UDC     C315480  16.491   5.196  14.942 -0.2165  0.6379 -0.7874
 1408UDC     C415481  16.521   5.058  14.873  1.0227  0.0766 -0.5395
 1408UDC     C515482  16.614   4.950  14.940 -0.0812  1.1608 -0.1255
 1408UDC     C615483  16.767   4.960  14.959 -0.7015 -0.5394  0.1948
 1408UDC     C715484  16.838   4.850  14.875  0.3652 -1.1015  0.9379
 1408UDC     C815485  16.994   4.839  14.892  0.2277  0.5375 -0.6793
 1408UDC     C915486  17.044   4.703  14.852 -0.0625  0.3201 -0.7033
 1408UDC    C1015487  17.056   4.607  14.972 -0.4885  0.3204 -0.5548
 1408UDC    C1115488  17.180   4.513  14.975  0.8151  0.8197 -0.2988
 1409UDC     C115489  18.363  19.147  18.527 -0.6605  0.1413 -0.2782
 1409UDC     C215490  18.358  19.001  18.578 -0.6135  0.7199 -0.3659
 1409UDC     C315491  18.325  18.973  18.728  0.4053 -0.2715  0.0730
 1409UDC     C415492  18.191  19.032  18.776  0.5508  0.3074 -0.6330
 1409UDC     C515493  18.066  18.955  18.731  0.1965 -0.6068  0.2730
 1409UDC     C615494  18.063  18.817  18.792  0.1254  0.3528  0.5561
 1409UDC     C715495  17.934  18.735  18.789  0.2630  0.1537 -0.0948
 1409UDC     C815496  17.929  18.592  18.744 -0.1109 -0.0053  0.4709
 1409UDC     C915497  18.037  18.488  18.793 -0.5843  0.3901  0.4735
 1409UDC    C1015498  18.006  18.355  18.718 -0.9008  0.0752 -0.3704
 1409UDC    C1115499  17.994  18.232  18.809 -0.0573 -0.2702 -0.4388
 1410UDC     C115500   8.568   9.239  17.972 -0.1542  0.9725  0.1091
 1410UDC     C215501   8.563   9.086  17.944 -0.6043 -0.1521  0.1733
 1410UDC     C315502   8.626   9.035  17.811  0.0028 -0.2966 -1.1727
 1410UDC     C415503   8.774   9.071  17.793 -0.9215  0.3919  1.1212
 1410UDC     C515504   8.807   9.083  17.645  1.2824 -0.2614 -0.7271
 1410UDC     C615505   8.948   9.139  17.605  0.0587 -0.3794  0.1979
 1410UDC     C715506   8.997   9.089  17.465  0.1292  0.9004  0.3765
 1410UDC     C815507   9.153   9.107  17.458 -0.0054 -0.3016  0.5656
 1410UDC     C915508   9.181   9.245  17.524  0.6654  0.5475  0.3110
 1410UDC    C1015509   9.325   9.271  17.570 -0.0859 -0.0305  0.4697
 1410UDC    C1115510   9.338   9.342  17.704 -0.2813  0.2792 -0.3098
 1411UDC     C115511   4.530   8.035  17.961  0.8305  0.2616  0.2328
 1411UDC     C215512   4.418   8.134  17.964 -0.4681  0.0260  0.6078
 1411UDC     C315513   4.405   8.226  17.838 -1.8722  0.3616  0.4233
 1411UDC     C415514   4.274   8.306  17.820  0.3699 -0.2243 -1.8843
 1411UDC     C515515   4.248   8.376  17.952  1.6748  0.5807 -0.3798
 1411UDC     C615516   4.141   8.481  17.936 -0.2561  0.8239  0.7590
 1411UDC     C715517   4.129   8.584  18.049  0.7774 -0.0776 -0.8552
 1411UDC     C815518   4.243   8.685  18.074  0.1450 -0.6428  0.2131
 1411UDC     C915519   4.266   8.738  18.213  1.2968  0.9804 -0.2843
 1411UDC    C1015520   4.325   8.632  18.307  0.3832 -0.1979 -0.4525
 1411UDC    C1115521   4.426   8.557  18.224 -1.5232 -0.5661 -0.9877
 1412UDC     C115522  11.958  13.067  19.415 -0.0459 -0.6146  0.1411
 1412UDC     C215523  11.948  13.165  19.299 -0.7471  0.3779  0.2333
 1412UDC     C315524  12.069  13.160  19.203 -0.6747 -0.3703  0.1528
 1412UDC     C415525  12.104  13.291  19.133  0.7369  0.2286  0.3847
 1412UDC     C515526  12.130  13.417  19.224  0.1047  1.3392  0.0615
 1412UDC     C615527  12.181  13.547  19.167 -0.5277 -0.1448 -0.7310
 1412UDC     C715528  12.208  13.664  19.261  0.7912 -0.5339 -0.9953
 1412UDC     C815529  12.265  13.789  19.189 -0.7474  0.1278 -0.0771
 1412UDC     C915530  12.244  13.934  19.234  0.3404  0.1733 -0.1425
 1412UDC    C1015531  12.273  13.971  19.383 -0.4315 -0.1389 -0.0285
 1412UDC    C1115532  12.219  14.106  19.420 -0.6307 -0.8035 -0.3934
 1413UDC     C115533  16.216   8.874   4.314 -0.2707 -0.2587 -0.0937
 1413UDC     C215534  16.347   8.816   4.379  0.8576  0.6710  1.0189
 1413UDC     C315535  16.448   8.765   4.272 -0.2604 -0.5649  1.2907
 1413UDC     C415536  16.546   8.871   4.206 -0.5870 -0.8703 -1.1293
 1413UDC     C515537  16.678   8.806   4.178  0.0743  0.0817  1.3742
 1413UDC     C615538  16.796   8.895   4.136  0.5085  0.6662  0.4442
 1413UDC     C715539  16.761   8.987   4.017 -0.8718  0.0781  0.0170
 1413UDC     C815540  16.837   9.122   4.025  0.1565  0.6363 -0.6933
 1413UDC     C915541  16.841   9.169   4.173 -0.2015 -0.2174 -1.0673
 1413UDC    C1015542  16.960   9.263   4.217  0.4555 -0.4187  0.0784
 1413UDC    C1115543  17.003   9.401   4.158 -0.3760  0.0810 -0.3612
 1414UDC     C115544   5.051  18.562   7.322  0.0059  0.4275 -0.5267
 1414UDC     C215545   5.119  18.603   7.190 -0.1364  0.3906  0.2191
 1414UDC     C315546   5.217  18.724   7.199  0.7009  0.1055 -0.5117
 1414UDC     C415547   5.147  18.864   7.243 -0.0688  0.4161 -0.2745
 1414UDC     C515548   5.249  18.964   7.289 -1.0641 -0.4386 -0.9093
 1414UDC     C615549   5.208  19.101   7.338 -0.5337 -0.5521 -0.1828
 1414UDC     C715550   5.165  19.177   7.210 -1.1222 -0.8185  0.4860
 1414UDC     C815551   5.130  19.324   7.233  0.8178 -0.6146 -0.2113
 1414UDC     C915552   5.005  19.350   7.322 -1.3359  0.0308 -1.0941
 1414UDC    C1015553   4.992  19.499   7.369 -0.3715 -0.7631  0.2454
 1414UDC    C1115554   4.852  19.549   7.412 -0.3262  0.1271 -0.0386
 1415UDC     C115555  15.890  14.733   3.291  0.5808  0.4870 -0.0278
 1415UDC     C215556  15.955  14.826   3.403 -0.6130 -0.1730 -0.4479
 1415UDC     C315557  16.090  14.781   3.467 -0.6231 -0.0988 -0.8134
 1415UDC     C415558  16.158  14.882   3.563  0.3439  0.0616  0.9015
 1415UDC     C515559  16.304  14.865   3.586  0.3935 -0.7180  0.8605
 1415UDC     C615560  16.339  14.728   3.640 -0.6875 -0.4966  0.4871
 1415UDC     C715561  16.262  14.689   3.767 -0.2391  1.3245 -0.0589
 1415UDC     C815562  16.315  14.547   3.818 -0.1970 -0.3718 -0.0525
 1415UDC     C915563  16.287  14.532   3.963 -0.6385  0.3924 -1.5776
 1415UDC    C1015564  16.395  14.560   4.073 -0.1342  0.6900  0.2176
 1415UDC    C1115565  16.331  14.587   4.212  0.3256 -0.6296 -0.7895
 1416UDC     C115566  14.054   1.944  18.968 -0.4155  1.4280  0.5378
 1416UDC     C215567  14.021   1.796  18.941  0.7563  0.8083 -0.3830
 1416UDC     C315568  13.878   1.773  18.887 -0.0376  0.6098  0.1537
 1416UDC     C415569  13.859   1.819  18.745 -0.9060 -0.2402  0.1836
 1416UDC     C515570  13.751   1.759  18.663 -0.4106 -0.0416 -0.5180
 1416UDC     C615571  13.608   1.811  18.664  0.5070  0.2757  0.0213
 1416UDC     C715572  13.595   1.967  18.683 -0.6675  0.0094 -0.1840
 1416UDC     C815573  13.483   2.041  18.610 -1.1666  0.0141 -0.9135
 1416UDC     C915574  13.500   1.987  18.465 -0.3823  0.2879  0.0972
 1416UDC    C1015575  13.382   1.995  18.366 -0.7122  0.5658  0.5989
 1416UDC    C1115576  13.339   1.851  18.332 -0.2035  0.0188 -0.2648
 1417UDC     C115577  14.278  16.781  13.693 -0.6212 -0.1514 -0.9558
 1417UDC     C215578  14.353  16.651  13.745  0.1462 -1.6991  0.2706
 1417UDC     C315579  14.263  16.554  13.821 -0.5131  0.3129  0.6933
 1417UDC     C415580  14.299  16.400  13.805 -0.4106  0.2123  0.0745
 1417UDC     C515581  14.213  16.308  13.896  0.1254  0.8748  0.7035
 1417UDC     C615582  14.259  16.156  13.879  0.8570 -0.5922 -0.7238
 1417UDC     C715583  14.173  16.058  13.957  0.5505 -0.4157  0.0729
 1417UDC     C815584  14.027  16.096  13.953 -0.6326 -0.2532 -0.2945
 1417UDC     C915585  13.945  16.008  14.045 -0.0269 -0.4595 -1.1138
 1417UDC    C1015586  13.958  16.055  14.190  0.7181 -0.2334 -0.4055
 1417UDC    C1115587  14.006  15.953  14.292  0.4134 -0.2144  0.2954
 1418UDC     C115588  19.942  15.068  12.982 -0.1143 -0.6927 -0.4121
 1418UDC     C215589  19.953  15.191  12.889  0.7141  0.1461  0.6542
 1418UDC     C315590  19.942  15.332  12.962  0.2366 -0.9300  0.3220
 1418UDC     C415591  19.972  15.452  12.876 -0.1302  0.4375 -0.2861
 1418UDC     C515592  19.990  15.570  12.971  0.2101 -0.4524 -0.1246
 1418UDC     C615593  19.897  15.691  12.938  0.0562  0.8443 -0.3021
 1418UDC     C715594  19.748  15.657  12.941  0.2556  0.9304  0.0807
 1418UDC     C815595  19.674  15.740  12.828  0.1232  0.4658 -0.4378
 1418UDC     C915596  19.700  15.894  12.826 -0.7031 -0.1092 -0.0391
 1418UDC    C1015597  19.598  15.953  12.725 -0.6646  0.6146 -0.0263
 1418UDC    C1115598  19.625  16.097  12.682 -0.1799  0.2802 -0.0128
 1419UDC     C115599  10.710   5.625  14.485  0.5957 -1.0166  0.5464
 1419UDC     C215600  10.743   5.779  14.482 -0.3781 -0.8178 -0.7406
 1419UDC     C315601  10.637   5.863  14.413 -0.4281  0.1076 -0.0291
 1419UDC     C415602  10.658   5.840  14.259 -0.7709  0.6218  0.6256
 1419UDC     C515603  10.586   5.948  14.192 -0.6418  0.0099 -0.7654
 1419UDC     C615604  10.599   5.929  14.035 -1.1178  0.1061  1.1043
 1419UDC     C715605  10.606   6.049  13.943  0.5640 -0.9831 -0.5403
 1419UDC     C815606  10.669   6.009  13.809 -1.5533 -0.4777 -0.3016
 1419UDC     C915607  10.753   6.127  13.762 -0.0716 -0.3442  0.0062
 1419UDC    C1015608  10.904   6.107  13.771  0.4653 -0.0250  0.4437
 1419UDC    C1115609  10.990   6.240  13.772  0.4648  1.2978 -0.4680
 1420UDC     C115610  18.993  13.146  19.017  0.6018  0.5308 -0.1879
 1420UDC     C215611  19.120  13.206  19.070 -1.1347 -0.4891 -0.6147
 1420UDC     C315612  19.169  13.323  18.980 -0.0638  0.2707 -0.7616
 1420UDC     C415613  19.314  13.371  18.998  0.8728 -1.0951  0.7891
 1420UDC     C515614  19.347  13.462  18.883  0.3903  0.1352 -0.2280
 1420UDC     C615615  19.251  13.582  18.860 -0.1438 -0.4565  0.1776
 1420UDC     C715616  19.325  13.708  18.829 -0.1622 -0.3733 -1.2112
 1420UDC     C815617  19.249  13.809  18.744 -0.3605  0.7983 -0.6514
 1420UDC     C915618  19.316  13.944  18.742  0.4671  0.2789  0.3930
 1420UDC    C1015619  19.239  14.075  18.709 -0.3743  0.6594  0.6485
 1420UDC    C1115620  19.317  14.206  18.702 -0.6186  0.4403 -0.3606
 1421UDC     C115621   0.545  17.825  10.293 -0.2921 -0.4055 -0.0443
 1421UDC     C215622   0.684  17.821  10.227  1.0752 -0.0890 -0.1323
 1421UDC     C315623   0.808  17.813  10.313 -0.4483 -0.5814 -0.4105
 1421UDC     C415624   0.926  17.781  10.223 -0.1846 -0.1891 -0.4306
 1421UDC     C515625   1.060  17.807  10.302  1.0413 -0.1355  0.2504
 1421UDC     C615626   1.184  17.734  10.241  0.9981  0.0102  0.2837
 1421UDC     C715627   1.299  17.738  10.329 -0.2481 -0.4424  0.2400
 1421UDC     C815628   1.298  17.630  10.436 -0.3170  0.8729 -0.6725
 1421UDC     C915629   1.384  17.512  10.396 -2.2375 -0.6167  1.2056
 1421UDC    C1015630   1.341  17.369  10.426  0.8701 -0.0195 -0.5021
 1421UDC    C1115631   1.318  17.349  10.577  0.5201 -0.5290 -0.3518
 1422UDC     C115632   8.471  11.698   4.611 -0.0847 -0.8902 -0.2154
 1422UDC     C215633   8.362  11.593   4.584  0.4870 -0.2243 -0.7547
 1422UDC     C315634   8.349  11.453   4.642  0.1605 -0.9114  0.1714
 1422UDC     C415635   8.475  11.358   4.637  0.2606 -0.2860 -1.5502
 1422UDC     C515636   8.493  11.273   4.509 -0.7560 -0.6085 -0.4214
 1422UDC     C615637   8.607  11.167   4.519  1.2020 -0.4697  1.4041
 1422UDC     C715638   8.744  11.212   4.566 -0.0781 -0.5026  0.2377
 1422UDC     C815639   8.793  11.316   4.463  0.5086  0.2020 -0.7382
 1422UDC     C915640   8.938  11.321   4.446  0.1504  0.1170 -0.3093
 1422UDC    C1015641   8.985  11.205   4.355 -0.0161 -0.5436 -0.6181
 1422UDC    C1115642   9.138  11.211   4.340 -0.1608 -0.5267  0.6220
 1423UDC     C115643   6.238  12.658   5.595  0.7964  0.2156 -1.2752
 1423UDC     C215644   6.106  12.632   5.520  0.6866 -0.7751  0.2342
 1423UDC     C315645   6.089  12.713   5.392  0.8493  0.4067 -0.5507
 1423UDC     C415646   5.948  12.672   5.341 -0.1300 -0.4046  0.4791
 1423UDC     C515647   5.957  12.561   5.235 -0.7487 -0.1260  0.8922
 1423UDC     C615648   5.833  12.474   5.215 -1.0010  0.3082  0.0872
 1423UDC     C715649   5.850  12.350   5.126  0.7795 -0.0410 -0.7037
 1423UDC     C815650   5.735  12.242   5.104 -0.3670 -0.3395 -0.0728
 1423UDC     C915651   5.766  12.102   5.056 -0.7548  0.7179  1.0544
 1423UDC    C1015652   5.638  12.017   5.033 -1.4626 -0.4536 -0.7449
 1423UDC    C1115653   5.668  11.876   4.979  0.6609 -0.3624 -0.4180
 1424UDC     C115654  14.404  12.019   0.114  0.2466 -1.2264  0.2283
 1424UDC     C215655  14.413  11.879   0.172 -0.4556 -0.6317  0.6802
 1424UDC     C315656  14.561  11.834   0.184  0.2762  0.5229 -0.7875
 1424UDC     C415657  14.588  11.726   0.292 -0.3452 -0.1726  0.0952
 1424UDC     C515658  14.487  11.615   0.295  0.7426  0.5581 -0.4048
 1424UDC     C615659  14.515  11.498   0.400 -0.4956 -0.3608  0.3206
 1424UDC     C715660  14.456  11.356   0.361  0.9727 -0.1898 -0.3576
 1424UDC     C815661  14.549  11.253   0.301 -0.0327 -0.3115 -1.1132
 1424UDC     C915662  14.496  11.131   0.231 -0.0984  0.8370 -0.5140
 1424UDC    C1015663  14.562  10.998   0.276 -0.5093 -0.2703 -0.3041
 1424UDC    C1115664  14.550  10.881   0.182 -0.5999 -0.3056 -0.0400
 1425UDC     C115665  14.090   8.242   3.502  0.4455 -0.7111  0.3308
 1425UDC     C215666  14.064   8.090   3.515  0.6151 -0.6278 -0.4223
 1425UDC     C315667  14.130   7.993   3.415 -0.6270  0.4841  0.4522
 1425UDC     C415668  14.094   8.006   3.270 -0.0955 -0.6543 -0.6677
 1425UDC     C515669  14.122   7.881   3.186  0.7748 -0.0056 -0.7176
 1425UDC     C615670  14.270   7.857   3.160  1.3059  0.0081 -1.0868
 1425UDC     C715671  14.287   7.705   3.200 -0.0689  0.0296  0.1659
 1425UDC     C815672  14.204   7.596   3.130  0.1279 -0.2294  1.1421
 1425UDC     C915673  14.193   7.456   3.202 -0.5225 -1.0754 -0.3749
 1425UDC    C1015674  14.062   7.388   3.155  0.0338  1.3232  0.6553
 1425UDC    C1115675  13.937   7.446   3.219 -0.1799 -0.0738  0.2701
 1426UDC     C115676  14.815   6.637   1.370 -0.2777 -0.4490  0.5263
 1426UDC     C215677  14.884   6.648   1.507  0.7587  0.6679  0.7004
 1426UDC     C315678  14.980   6.533   1.514  0.5231  0.6003  0.9104
 1426UDC     C415679  15.127   6.570   1.508 -0.6063 -0.8397  0.1505
 1426UDC     C515680  15.225   6.468   1.573  0.2397 -0.7874  0.5920
 1426UDC     C615681  15.371   6.464   1.528  0.5227  0.4895  0.1691
 1426UDC     C715682  15.456   6.569   1.594  0.1352 -0.5937 -0.9859
 1426UDC     C815683  15.605   6.576   1.560 -0.4846 -0.4475 -0.8343
 1426UDC     C915684  15.693   6.486   1.651  0.3684  0.1744 -0.6448
 1426UDC    C1015685  15.837   6.475   1.606 -0.4016 -1.0854  0.2231
 1426UDC    C1115686  15.926   6.358   1.670 -0.4339 -0.3563  0.6364
 1427UDC     C115687   3.102   4.328   3.363 -0.1190  0.7845 -0.4743
 1427UDC     C215688   3.153   4.472   3.370 -1.6224 -0.7869 -0.8026
 1427UDC     C315689   3.257   4.515   3.269 -1.0428 -0.2077 -0.0137
 1427UDC     C415690   3.376   4.413   3.266  0.7272  0.4357 -0.7482
 1427UDC     C515691   3.470   4.432   3.385  1.0921  0.4272  0.5311
 1427UDC     C615692   3.564   4.555   3.388  1.0965  0.2299 -0.0478
 1427UDC     C715693   3.529   4.708   3.423  1.0471  0.6001  1.3695
 1427UDC     C815694   3.639   4.791   3.480 -0.1227 -0.0934  0.2139
 1427UDC     C915695   3.602   4.933   3.516  0.0346 -0.7507  0.1298
 1427UDC    C1015696   3.742   5.010   3.521  0.9578  0.3065  0.1454
 1427UDC    C1115697   3.877   4.954   3.468  0.0918 -0.1841 -0.2496
 1428UDC     C115698   0.829   8.726  16.101 -0.9040 -0.4977  0.0102
 1428UDC     C215699   0.802   8.622  15.997  0.1300  1.1566  0.1627
 1428UDC     C315700   0.831   8.683  15.865  0.0603 -1.2021 -0.2142
 1428UDC     C415701   0.971   8.733  15.840 -0.3645 -0.6444  0.4770
 1428UDC     C515702   0.995   8.878  15.789  0.3363 -1.0710  0.1076
 1428UDC     C615703   1.143   8.917  15.757 -1.0485 -0.5943  0.4556
 1428UDC     C715704   1.240   8.892  15.875 -0.3286  0.0971 -0.0988
 1428UDC     C815705   1.383   8.939  15.854 -0.1942  0.8650  0.2799
 1428UDC     C915706   1.472   8.845  15.765  0.8571  0.1330 -0.1678
 1428UDC    C1015707   1.492   8.920  15.634 -0.6188  0.3802  0.2819
 1428UDC    C1115708   1.593   9.035  15.648 -0.3422 -0.0803  0.5523
 1429UDC     C115709   6.840  11.269   3.410  1.2142  0.1573 -0.0521
 1429UDC     C215710   6.744  11.250   3.284  0.1655 -1.4797  0.4061
 1429UDC     C315711   6.609  11.186   3.321 -0.4698 -0.1959  0.3849
 1429UDC     C415712   6.603  11.038   3.269 -0.3752  0.3938  0.4729
 1429UDC     C515713   6.471  10.962   3.256 -0.3290  0.0033  0.4197
 1429UDC     C615714   6.478  10.815   3.293 -0.5959  0.0110 -0.2866
 1429UDC     C715715   6.354  10.735   3.304  1.1011  1.1598 -0.2815
 1429UDC     C815716   6.241  10.764   3.204 -0.4965  1.1984  0.9148
 1429UDC     C915717   6.109  10.683   3.221 -1.1919  0.3933  0.8562
 1429UDC    C1015718   6.015  10.720   3.099  0.9670  1.1303  0.1196
 1429UDC    C1115719   5.930  10.595   3.054  0.7673 -0.3798  0.3117
 1430UDC     C115720  16.436   1.235   3.389  0.9440  0.0250 -0.5501
 1430UDC     C215721  16.571   1.202   3.336  0.1314  0.5664  1.4517
 1430UDC     C315722  16.595   1.268   3.198  0.1014  0.2762 -0.1875
 1430UDC     C415723  16.537   1.177   3.092 -0.5445 -1.1739 -0.3910
 1430UDC     C515724  16.620   1.055   3.076  0.0560  0.0660 -0.1000
 1430UDC     C615725  16.525   0.926   3.079 -0.5971 -0.2783 -0.2821
 1430UDC     C715726  16.464   0.878   2.955  0.6908 -1.5389 -0.1704
 1430UDC     C815727  16.354   0.773   2.962 -1.2159  0.0170 -0.4723
 1430UDC     C915728  16.323   0.702   2.828  0.2812  0.5455  0.0177
 1430UDC    C1015729  16.429   0.618   2.756 -0.2248 -0.0560  0.4682
 1430UDC    C1115730  16.513   0.672   2.634  0.2117 -0.3928 -0.1121
 1431UDC     C115731   5.185   9.822   6.240 -0.7253 -0.4245  0.3566
 1431UDC     C215732   5.183   9.688   6.172 -0.5205  1.2299 -1.1145
 1431UDC     C315733   5.256   9.583   6.269  0.0444 -0.3072 -0.7459
 1431UDC     C415734   5.154   9.502   6.354  0.1216  0.9321 -0.1245
 1431UDC     C515735   5.205   9.418   6.470 -0.2393  1.3431 -0.2693
 1431UDC     C615736   5.091   9.388   6.566 -0.2512  0.1251 -0.6258
 1431UDC     C715737   4.993   9.275   6.519  0.3755  0.3238 -0.3613
 1431UDC     C815738   4.891   9.225   6.621 -0.5779  1.0560 -0.2670
 1431UDC     C915739   4.802   9.115   6.558  0.0458  1.1272 -0.0776
 1431UDC    C1015740   4.712   9.063   6.668 -0.9692  1.0771 -1.0125
 1431UDC    C1115741   4.618   8.963   6.602  0.2105  0.2297  0.2451
 1432UDC     C115742  11.108  11.832   9.312 -0.0581  1.3611 -0.3194
 1432UDC     C215743  11.010  11.942   9.348  0.0253  0.3617 -0.2550
 1432UDC     C315744  11.057  12.084   9.297 -1.2195  0.8966 -0.2664
 1432UDC     C415745  11.145  12.083   9.170 -0.0389 -0.1281 -0.0004
 1432UDC     C515746  11.072  12.057   9.038  1.6408 -0.0613 -0.2934
 1432UDC     C615747  11.179  12.057   8.926  0.1263 -0.3562  0.8108
 1432UDC     C715748  11.282  11.955   8.972 -0.5890 -1.1573 -1.1409
 1432UDC     C815749  11.424  12.012   8.940 -0.3227  0.2848  0.2724
 1432UDC     C915750  11.537  11.993   9.039  1.1766  0.2614  1.1176
 1432UDC    C1015751  11.686  11.993   9.000  0.2150 -1.6905  0.5732
 1432UDC    C1115752  11.749  11.856   8.999  0.3657  1.0026  0.4132
 1433UDC     C115753  12.151   0.983   2.676  0.5072 -0.0553  0.2970
 1433UDC     C215754  12.199   1.070   2.558  0.5744 -0.0837  0.6850
 1433UDC     C315755  12.316   1.019   2.474  0.8201  1.2194 -0.8927
 1433UDC     C415756  12.309   0.869   2.434 -1.0933 -0.6798  0.1110
 1433UDC     C515757  12.207   0.847   2.322  0.3072 -0.8203 -0.7220
 1433UDC     C615758  12.263   0.746   2.221  0.3396  0.0307  0.6756
 1433UDC     C715759  12.157   0.708   2.116  0.0456  0.3037  0.6569
 1433UDC     C815760  12.088   0.833   2.065 -0.1115 -0.0456 -1.0149
 1433UDC     C915761  11.993   0.832   1.936  0.0347 -0.2241 -0.3785
 1433UDC    C1015762  12.064   0.831   1.792 -1.3194  0.6040 -1.0932
 1433UDC    C1115763  12.051   0.695   1.728 -0.5734 -0.0231 -0.0270
 1434UDC     C115764  13.697   8.813   7.133 -0.0587  0.2473  0.7082
 1434UDC     C215765  13.556   8.802   7.069 -0.3769 -0.3018 -1.0463
 1434UDC     C315766  13.434   8.863   7.131  0.4341  0.1099  0.0772
 1434UDC     C415767  13.358   8.782   7.236 -0.1572 -0.4555  0.3681
 1434UDC     C515768  13.402   8.809   7.380  0.0077  0.4327 -0.3481
 1434UDC     C615769  13.278   8.787   7.469 -0.2595  1.5613  0.6073
 1434UDC     C715770  13.279   8.831   7.619 -0.3363  0.3933 -0.3627
 1434UDC     C815771  13.236   8.973   7.676  0.5396  0.2321  0.2058
 1434UDC     C915772  13.249   8.981   7.831  0.2368  0.3334 -0.2058
 1434UDC    C1015773  13.118   9.046   7.876  1.3669  0.2328  0.6233
 1434UDC    C1115774  12.982   9.012   7.797 -0.0221  0.7786 -0.3509
 1435UDC     C115775  17.953  16.882   0.904  0.4116 -0.0720  0.4676
 1435UDC     C215776  17.856  16.776   0.951  1.0065 -0.0358 -0.4137
 1435UDC     C315777  17.916  16.706   1.068 -0.9083 -0.5326  0.2849
 1435UDC     C415778  17.848  16.595   1.140 -0.5735  0.0002  0.7648
 1435UDC     C515779  17.911  16.589   1.287  1.3763 -1.0767  0.2302
 1435UDC     C615780  17.872  16.714   1.368  0.8589 -0.5802  0.7692
 1435UDC     C715781  17.953  16.703   1.496 -0.3732 -0.4219  0.4589
 1435UDC     C815782  18.102  16.733   1.476  0.4840  0.1724 -0.6379
 1435UDC     C915783  18.197  16.693   1.590 -0.2108 -0.4316 -0.0491
 1435UDC    C1015784  18.343  16.697   1.548  1.6978  0.2460  0.7520
 1435UDC    C1115785  18.379  16.594   1.444  0.8478 -1.0573  0.8158
 1436UDC     C115786  11.432   0.429  11.566 -0.0706 -0.0672  0.0470
 1436UDC     C215787  11.358   0.358  11.684  0.2567 -0.0813 -0.4322
 1436UDC     C315788  11.395   0.213  11.713 -0.1238  0.7499  0.1818
 1436UDC     C415789  11.284   0.122  11.659  0.4508 -0.2727 -0.4856
 1436UDC     C515790  11.329  -0.000  11.576  0.0990  0.3800  0.4304
 1436UDC     C615791  11.281  -0.134  11.645  0.3361  0.0733  0.3611
 1436UDC     C715792  11.325  -0.264  11.555 -0.2440 -1.1939 -1.3557
 1436UDC     C815793  11.311  -0.399  11.620 -2.0631 -0.0524 -0.1668
 1436UDC     C915794  11.358  -0.510  11.528  1.0459 -0.4019  0.1869
 1436UDC    C1015795  11.401  -0.625  11.609 -0.5774 -0.1164 -0.6053
 1436UDC    C1115796  11.512  -0.576  11.711  0.1282 -0.4988  0.5990
 1437UDC     C115797  18.091  14.077  18.848  0.4223 -0.1283  0.0440
 1437UDC     C215798  18.190  14.100  18.963  0.5960 -0.0988 -0.8812
 1437UDC     C315799  18.271  14.224  18.936 -0.2536 -0.0710  0.1067
 1437UDC     C415800  18.335  14.276  19.065 -0.2365  0.5624 -0.1456
 1437UDC     C515801  18.441  14.176  19.112 -0.1222 -0.5958  0.4352
 1437UDC     C615802  18.542  14.230  19.225  0.7647  0.1778  0.8827
 1437UDC     C715803  18.678  14.168  19.225  0.1878  1.8168 -0.1772
 1437UDC     C815804  18.769  14.231  19.117 -0.3518  0.5746  0.0968
 1437UDC     C915805  18.871  14.131  19.059  0.3926 -0.1354  2.1199
 1437UDC    C1015806  18.812  14.046  18.940  0.3891 -1.3298  0.2732
 1437UDC    C1115807  18.885  14.020  18.809 -1.0211 -0.3304 -1.0277
 1438UDC     C115808  13.457  18.854  12.032  0.3647 -0.0458  2.0662
 1438UDC     C215809  13.383  18.907  11.902  0.5792 -0.0054 -0.2028
 1438UDC     C315810  13.234  18.948  11.926  0.0835  0.2676  0.4474
 1438UDC     C415811  13.168  18.999  11.797  0.2240  0.7781  0.3347
 1438UDC     C515812  13.212  18.908  11.686  0.2691 -1.1329 -1.0357
 1438UDC     C615813  13.134  18.916  11.553 -0.2903 -0.2936  0.4001
 1438UDC     C715814  13.227  18.850  11.449  0.2206  0.3863 -0.2379
 1438UDC     C815815  13.169  18.797  11.315  0.3065  0.4034 -1.1750
 1438UDC     C915816  13.251  18.707  11.224  0.1748  0.0050 -0.7562
 1438UDC    C1015817  13.160  18.615  11.145 -0.2263 -0.2720  0.8311
 1438UDC    C1115818  13.095  18.505  11.231 -0.0337 -0.6437 -1.1590
 1439UDC     C115819  15.369  10.660   0.591  0.1383 -0.6292 -1.3294
 1439UDC     C215820  15.382  10.612   0.736 -1.1321 -0.0554 -0.2166
 1439UDC     C315821  15.321  10.710   0.830  0.0065 -0.1667 -0.2034
 1439UDC     C415822  15.177  10.732   0.787  0.2503 -1.1142  0.5868
 1439UDC     C515823  15.068  10.637   0.839  0.6040 -0.5603 -0.0760
 1439UDC     C615824  14.929  10.693   0.785 -0.2205  0.4240  0.4140
 1439UDC     C715825  14.906  10.637   0.646  0.5933 -0.1807 -0.2002
 1439UDC     C815826  14.898  10.482   0.644 -0.4265 -0.5831  0.4663
 1439UDC     C915827  14.963  10.430   0.515  0.6541 -0.2421  1.0654
 1439UDC    C1015828  14.894  10.306   0.473  0.5490 -0.3660  0.1646
 1439UDC    C1115829  14.855  10.234   0.605  0.5676 -0.1728 -0.1160
 1440UDC     C115830  14.180   6.731  19.034 -0.1645 -1.0518  0.3870
 1440UDC     C215831  14.218   6.878  19.062 -0.5739 -0.5739  0.0165
 1440UDC     C315832  14.348   6.946  19.026 -0.8198 -0.0787 -1.0882
 1440UDC     C415833  14.471   6.907  19.121  0.5617  1.6507 -0.9707
 1440UDC     C515834  14.558   6.791  19.050  0.3075 -0.5026  0.0926
 1440UDC     C615835  14.683   6.726  19.114  0.4927  0.8806 -0.5659
 1440UDC     C715836  14.703   6.595  19.045  1.1119 -0.0297  0.7815
 1440UDC     C815837  14.812   6.524  19.119 -0.5361  0.2851  0.0138
 1440UDC     C915838  14.796   6.556  19.270 -0.6863 -0.0917  0.3863
 1440UDC    C1015839  14.918   6.523  19.360 -1.5316 -0.0212  0.3865
 1440UDC    C1115840  14.908   6.595  19.497 -0.6869  0.2261  0.0488
 1441UDC     C115841  17.850   2.395  14.735 -0.8417 -0.0679  0.5608
 1441UDC     C215842  17.974   2.401  14.824  0.5014  0.1367  0.1050
 1441UDC     C315843  18.025   2.551  14.820  0.0206  0.1030 -0.4563
 1441UDC     C415844  18.050   2.591  14.972  0.6734  0.3928  0.5197
 1441UDC     C515845  17.926   2.579  15.059  0.5624 -0.2308 -0.1114
 1441UDC     C615846  17.929   2.643  15.194 -0.2379  0.4222  0.5574
 1441UDC     C715847  18.054   2.625  15.268 -0.8938  0.0855 -0.2948
 1441UDC     C815848  18.103   2.691  15.399 -0.9019 -0.4558  0.7000
 1441UDC     C915849  17.984   2.690  15.504 -0.1122  0.1390  0.1384
 1441UDC    C1015850  17.991   2.798  15.605 -0.0038 -0.4928 -0.4046
 1441UDC    C1115851  17.945   2.931  15.552  0.0991 -0.5275 -0.0077
 1442UDC     C115852  15.311  15.176   1.864  0.4552 -0.5696  0.8002
 1442UDC     C215853  15.294  15.104   1.726  0.0160  0.1515 -0.4943
 1442UDC     C315854  15.414  15.015   1.703  0.8639  0.5322  0.8540
 1442UDC     C415855  15.425  14.934   1.577 -0.8626 -0.2162  0.5826
 1442UDC     C515856  15.361  14.793   1.567  0.6337 -0.0364  0.4319
 1442UDC     C615857  15.464  14.675   1.575  0.6172 -1.2930 -1.1237
 1442UDC     C715858  15.563  14.649   1.456 -0.9034 -0.0199  1.1122
 1442UDC     C815859  15.686  14.569   1.502 -0.1570 -0.4325 -0.1448
 1442UDC     C915860  15.806  14.561   1.407  0.7330  1.0354  0.2419
 1442UDC    C1015861  15.924  14.478   1.464 -0.1916 -0.7463 -0.0329
 1442UDC    C1115862  15.988  14.532   1.600 -0.0394  0.2838  0.1937
 1443UDC     C115863   5.730   5.015   2.713 -0.5016 -0.9504 -0.0334
 1443UDC     C215864   5.603   5.029   2.623  0.0734 -1.9833  0.6849
 1443UDC     C315865   5.586   5.178   2.564 -0.1613  0.9442 -0.2031
 1443UDC     C415866   5.475   5.190   2.462 -0.3691  0.3345 -1.4915
 1443UDC     C515867   5.343   5.119   2.492 -1.2035 -0.5724  0.4263
 1443UDC     C615868   5.257   5.164   2.618 -0.4736  0.8531  0.1257
 1443UDC     C715869   5.198   5.303   2.613  0.0498 -0.4651  0.6864
 1443UDC     C815870   5.066   5.325   2.526 -0.3177  0.4562  0.1433
 1443UDC     C915871   5.025   5.477   2.548 -0.3967  0.6888 -1.3437
 1443UDC    C1015872   4.924   5.539   2.443  0.3796  1.1676 -0.6810
 1443UDC    C1115873   4.860   5.672   2.493 -0.0421  1.2790  1.3568
 1444UDC     C115874   6.847  14.497  17.818 -1.0337 -0.0305 -0.2474
 1444UDC     C215875   6.903  14.401  17.921  0.8804 -0.2229 -1.5281
 1444UDC     C315876   6.865  14.251  17.902 -0.8095 -0.8250  0.3796
 1444UDC     C415877   6.953  14.164  17.981  0.5457  1.3635  0.1350
 1444UDC     C515878   7.105  14.153  17.956 -0.8931  0.8446  0.4645
 1444UDC     C615879   7.179  14.106  18.081  0.2033  1.4581 -0.1667
 1444UDC     C715880   7.159  14.205  18.195  0.1315  1.0815  0.6830
 1444UDC     C815881   7.179  14.165  18.344 -0.8629 -0.3760  0.8477
 1444UDC     C915882   7.302  14.076  18.360 -0.6631  0.5989  0.2218
 1444UDC    C1015883   7.345  14.034  18.498  0.9739  0.9261  0.1158
 1444UDC    C1115884   7.496  13.996  18.511 -0.0702  0.7059 -0.2084
 1445UDC     C115885   8.675   8.574   6.533 -0.2879 -0.3471  1.5863
 1445UDC     C215886   8.592   8.701   6.554 -0.2220 -0.5095  1.0859
 1445UDC     C315887   8.456   8.678   6.492 -0.6887 -0.7562  1.8607
 1445UDC     C415888   8.363   8.799   6.484  0.2772  1.0064  0.3417
 1445UDC     C515889   8.277   8.775   6.359 -0.4414 -0.6961 -0.1703
 1445UDC     C615890   8.222   8.914   6.310 -0.5190 -0.0339  0.3016
 1445UDC     C715891   8.137   8.975   6.420  0.0795  0.4615 -0.6418
 1445UDC     C815892   8.080   9.110   6.390 -0.5125 -0.8381  0.0594
 1445UDC     C915893   7.948   9.107   6.299  0.3144 -0.9184  0.1967
 1445UDC    C1015894   7.834   9.022   6.358  0.8208  0.3893  1.3705
 1445UDC    C1115895   7.812   8.886   6.299  0.4785  1.0167  0.0104
 1446UDC     C115896   0.695  17.139  14.054  0.1283  0.0782 -0.0668
 1446UDC     C215897   0.833  17.084  14.093  0.4058  0.4400  0.0691
 1446UDC     C315898   0.831  16.942  14.159  0.2914 -0.0836 -0.8716
 1446UDC     C415899   0.848  16.817  14.070  0.2051 -0.0194  0.8263
 1446UDC     C515900   0.866  16.688  14.154  0.1090  0.1693  0.2388
 1446UDC     C615901   0.955  16.741  14.271 -0.1889  0.0565  0.1799
 1446UDC     C715902   0.982  16.648  14.390 -0.4163  0.7218  1.1563
 1446UDC     C815903   1.041  16.512  14.355  0.9041 -0.0569 -0.0371
 1446UDC     C915904   1.066  16.427  14.480 -0.4065  0.3759 -0.1633
 1446UDC    C1015905   0.957  16.333  14.534 -0.2975 -0.0267  0.0280
 1446UDC    C1115906   0.984  16.183  14.514  0.7348 -0.1869 -0.6329
 1447UDC     C115907   5.390   8.624  16.192  1.0173 -0.1109  0.4301
 1447UDC     C215908   5.514   8.682  16.123 -0.1981  0.5655  0.2806
 1447UDC     C315909   5.591   8.760  16.229  0.6263 -0.0554  0.1653
 1447UDC     C415910   5.529   8.896  16.272  0.4151 -0.1570 -0.3960
 1447UDC     C515911   5.560   8.945  16.415  0.2000 -0.0632  0.0816
 1447UDC     C615912   5.485   8.882  16.528 -0.6309 -0.5984  0.2712
 1447UDC     C715913   5.551   8.894  16.668  0.7921  0.6231  0.8819
 1447UDC     C815914   5.701   8.868  16.660  0.0646 -0.6964  0.0732
 1447UDC     C915915   5.760   8.817  16.796  0.3054 -0.1478 -0.7500
 1447UDC    C1015916   5.754   8.921  16.908 -0.2780  0.1157  0.0301
 1447UDC    C1115917   5.798   8.866  17.041  0.3560  0.6594 -0.4138
 1448UDC     C115918   0.652   5.139  13.302 -0.3717  0.4692 -0.0907
 1448UDC     C215919   0.565   5.258  13.253 -1.1425  0.4998  1.2479
 1448UDC     C315920   0.514   5.361  13.356  0.3142 -0.8332  0.3760
 1448UDC     C415921   0.413   5.471  13.291  1.4871  0.5502  1.4931
 1448UDC     C515922   0.352   5.586  13.371  0.0566 -0.6824  0.7111
 1448UDC     C615923   0.263   5.535  13.471 -0.6872 -0.0287  0.5200
 1448UDC     C715924   0.262   5.641  13.581  0.3030  0.2276  0.0527
 1448UDC     C815925   0.294   5.548  13.705  0.6418  1.0231  0.4765
 1448UDC     C915926   0.281   5.613  13.842  0.3361  0.2333  0.6541
 1448UDC    C1015927   0.362   5.512  13.930 -0.3196  0.1938  1.1031
 1448UDC    C1115928   0.379   5.585  14.066  0.9765 -0.1229  0.2711
 1449UDC     C115929   5.606   3.527   6.280 -1.2743 -0.1349 -1.0191
 1449UDC     C215930   5.687   3.529   6.416  0.6943  0.1437  0.2248
 1449UDC     C315931   5.694   3.393   6.491 -0.0837  1.0488  0.8519
 1449UDC     C415932   5.777   3.345   6.614  0.1584 -0.4658 -0.2073
 1449UDC     C515933   5.786   3.193   6.630 -0.2843 -0.4581  0.0664
 1449UDC     C615934   5.903   3.145   6.546 -0.1306  0.5401  0.6839
 1449UDC     C715935   5.912   3.157   6.393 -0.3442 -0.3142 -0.0752
 1449UDC     C815936   5.922   3.007   6.350  0.3781  0.6247  0.0917
 1449UDC     C915937   6.061   2.941   6.347  0.8604 -0.2309  0.1037
 1449UDC    C1015938   6.051   2.793   6.301 -0.3136  0.1523  0.2967
 1449UDC    C1115939   6.186   2.730   6.237 -0.2352 -0.1950  0.4052
 1450UDC     C115940  15.432   3.724   6.228  0.5305  0.7180 -1.3948
 1450UDC     C215941  15.469   3.581   6.177  0.2456 -0.2775  0.9498
 1450UDC     C315942  15.351   3.479   6.197  0.0771 -0.7176 -1.2156
 1450UDC     C415943  15.312   3.461   6.349  0.0237  0.6635  0.1438
 1450UDC     C515944  15.426   3.443   6.451  0.5696  0.0733 -0.5974
 1450UDC     C615945  15.492   3.304   6.473  0.9801 -1.2207  0.4504
 1450UDC     C715946  15.396   3.196   6.524  0.3437  1.2199 -0.2961
 1450UDC     C815947  15.337   3.100   6.416  0.1868 -1.4339  1.1851
 1450UDC     C915948  15.226   3.024   6.470  0.6691  0.0177  0.4023
 1450UDC    C1015949  15.116   3.109   6.532 -0.2600 -0.4138 -0.9244
 1450UDC    C1115950  14.995   3.030   6.570 -0.0220 -0.1549 -0.3331
 1451UDC     C115951  16.235  17.796   2.525  0.5603  0.2846  0.5351
 1451UDC     C215952  16.088  17.825   2.571  0.2438  0.4237  0.4266
 1451UDC     C315953  16.003  17.705   2.548  0.2422 -0.2427  0.5433
 1451UDC     C415954  16.010  17.662   2.407 -0.4797 -0.5517  0.0472
 1451UDC     C515955  15.929  17.529   2.405  1.1975 -0.0347  0.1959
 1451UDC     C615956  15.984  17.408   2.489  0.0718 -1.0001 -0.3906
 1451UDC     C715957  16.062  17.302   2.408  0.1706 -0.8517  0.0895
 1451UDC     C815958  15.976  17.273   2.287  0.4543  0.6250  0.7281
 1451UDC     C915959  15.989  17.132   2.238 -0.4280 -0.3163 -0.4625
 1451UDC    C1015960  16.127  17.096   2.176  0.0493 -0.3875  0.7637
 1451UDC    C1115961  16.127  17.170   2.043  0.2735 -0.3876  0.0397
 1452UDC     C115962   2.182  10.192  17.730 -1.0118  0.0053 -0.3688
 1452UDC     C215963   2.137  10.338  17.772 -0.1018 -0.0295  0.1138
 1452UDC     C315964   2.131  10.415  17.641 -0.4247  1.0457  0.3998
 1452UDC     C415965   2.009  10.380  17.556 -0.1245  0.5781  0.5643
 1452UDC     C515966   2.029  10.434  17.413  0.1281 -0.6237  0.1853
 1452UDC     C615967   1.994  10.336  17.293 -0.8903  0.9896 -0.3874
 1452UDC     C715968   1.844  10.335  17.268 -0.1472 -0.6651  0.2781
 1452UDC     C815969   1.804  10.477  17.225 -0.5191  0.5806  0.4871
 1452UDC     C915970   1.658  10.487  17.202  1.4786  0.0577  1.3478
 1452UDC    C1015971   1.581  10.368  17.128  0.6865  0.1158 -0.0535
 1452UDC    C1115972   1.435  10.389  17.100 -0.4704  0.5051  0.3155
 1453UDC     C115973  11.394  14.856   1.133  1.1260  0.6203  0.2086
 1453UDC     C215974  11.445  15.000   1.176 -0.1556 -0.5259 -0.2831
 1453UDC     C315975  11.395  15.061   1.311  0.7880  0.6279 -0.5109
 1453UDC     C415976  11.423  14.973   1.437  0.1344 -0.8375 -0.0268
 1453UDC     C515977  11.566  14.970   1.495 -0.6273 -0.3844  0.4581
 1453UDC     C615978  11.592  14.852   1.589 -0.2706 -0.0980  0.1854
 1453UDC     C715979  11.602  14.717   1.524 -0.5567  0.5894 -0.6176
 1453UDC     C815980  11.693  14.696   1.397  0.0912  0.3772  0.3440
 1453UDC     C915981  11.689  14.562   1.337 -0.8298 -0.2540  0.5764
 1453UDC    C1015982  11.830  14.533   1.273 -1.0684 -0.3140 -0.2876
 1453UDC    C1115983  11.834  14.581   1.127  1.1877 -1.3461  0.7935
 1454UDC     C115984   1.003  18.884  17.988  0.3347  0.8370  0.6862
 1454UDC     C215985   1.135  18.807  17.958 -0.0080  0.9619 -0.7594
 1454UDC     C315986   1.135  18.664  18.027  0.3287  0.8682  1.0017
 1454UDC     C415987   1.271  18.596  18.001  0.0333  0.0125  1.2409
 1454UDC     C515988   1.265  18.442  18.024 -0.7898  0.1051 -0.3032
 1454UDC     C615989   1.236  18.365  17.899  0.2586  1.4455  0.4801
 1454UDC     C715990   1.225  18.209  17.921  0.3439 -0.6131  0.0429
 1454UDC     C815991   1.069  18.167  17.928  0.1452  0.0028  0.3209
 1454UDC     C915992   1.010  18.101  18.056 -0.9649  0.5207  0.5516
 1454UDC    C1015993   0.865  18.064  18.026  0.3581 -0.2504  0.6076
 1454UDC    C1115994   0.842  17.962  17.911  0.5049 -0.1224  0.3725
 1455UDC     C115995  14.375  15.564  16.106 -0.4206 -0.3477 -0.5849
 1455UDC     C215996  14.525  15.595  16.125 -0.4429  0.5417 -0.5181
 1455UDC     C315997  14.599  15.512  16.236  0.8484 -0.0791  0.1861
 1455UDC     C415998  14.635  15.606  16.356 -0.1863  0.8428 -0.1863
 1455UDC     C515999  14.715  15.527  16.467  0.1961  0.0333  0.4594
 1455UDC     C616000  14.716  15.614  16.603  0.2211  1.1596  0.7524
 1455UDC     C716001  14.791  15.531  16.706 -0.6419 -0.3183  0.1138
 1455UDC     C816002  14.746  15.526  16.856 -0.9694 -0.2393  1.2980
 1455UDC     C916003  14.634  15.435  16.902  0.3094 -0.0669  0.0022
 1455UDC    C1016004  14.572  15.470  17.046 -0.1748 -0.3751  0.4954
 1455UDC    C1116005  14.663  15.454  17.170 -0.1236 -1.0230 -0.6628
 1456UDC     C116006   5.064  11.585   5.134 -0.8861 -0.7197 -0.5970
 1456UDC     C216007   5.022  11.713   5.063  0.2455  0.5607  0.0618
 1456UDC     C316008   4.933  11.807   5.147  0.5722  0.9588 -0.1667
 1456UDC     C416009   4.988  11.834   5.288  1.5620 -0.0518  0.2599
 1456UDC     C516010   4.894  11.936   5.357  0.5430  0.3096 -0.0735
 1456UDC     C616011   4.836  12.043   5.258 -0.1167  0.9133  0.5901
 1456UDC     C716012   4.766  12.163   5.318 -0.2758  0.9768  0.2204
 1456UDC     C816013   4.698  12.250   5.214 -0.3307 -0.0277 -1.2249
 1456UDC     C916014   4.790  12.282   5.096  0.2430  0.7309  1.0206
 1456UDC    C1016015   4.730  12.394   5.012  0.4351 -0.6948  0.8679
 1456UDC    C1116016   4.791  12.404   4.870 -0.1876 -0.1211 -0.2371
 1457UDC     C116017  11.736   0.048   7.466 -0.2817  0.3760  0.3219
 1457UDC     C216018  11.608   0.067   7.382 -1.0440 -0.2273  0.0592
 1457UDC     C316019  11.482   0.070   7.472 -0.6002  0.5153 -1.5985
 1457UDC     C416020  11.348   0.103   7.403  0.6549  0.5129  0.3739
 1457UDC     C516021  11.323   0.039   7.266  0.2255  0.5720 -0.2922
 1457UDC     C616022  11.339   0.130   7.142  0.2507  0.5276 -0.1656
 1457UDC     C716023  11.223   0.228   7.121  0.0880 -0.8632 -0.4736
 1457UDC     C816024  11.083   0.167   7.121 -0.6232  1.3939 -1.1722
 1457UDC     C916025  10.979   0.268   7.087  0.0251 -0.7621  0.2598
 1457UDC    C1016026  10.849   0.196   7.045  0.7935  0.8440 -0.0053
 1457UDC    C1116027  10.819   0.093   7.155  1.0255  0.3549  0.2467
 1458UDC     C116028  13.064   4.780   7.220 -0.5630 -0.3048  0.2703
 1458UDC     C216029  13.070   4.890   7.119  0.7356 -0.1394  0.0582
 1458UDC     C316030  13.185   4.882   7.015  0.3457 -0.3869  0.5928
 1458UDC     C416031  13.172   4.983   6.902  0.0765  0.7802 -0.1636
 1458UDC     C516032  13.301   4.987   6.815 -0.7762  0.4614  0.3602
 1458UDC     C616033  13.288   5.099   6.711  0.3490  0.2019 -0.4631
 1458UDC     C716034  13.424   5.112   6.642 -0.4704 -0.4781 -0.7916
 1458UDC     C816035  13.434   5.200   6.515 -0.1775  0.4812 -0.1811
 1458UDC     C916036  13.579   5.197   6.464 -0.6794 -0.0147  0.8008
 1458UDC    C1016037  13.657   5.068   6.439 -0.7982 -0.0750 -0.7390
 1458UDC    C1116038  13.612   4.968   6.330 -0.2651 -0.5021 -0.3697
 1459UDC     C116039  10.778  11.070  13.079 -0.3366 -0.7548 -0.1830
 1459UDC     C216040  10.841  10.961  12.980 -0.0425  0.2695 -0.2560
 1459UDC     C316041  10.801  10.823  13.035  0.5673  0.2004 -0.5430
 1459UDC     C416042  10.857  10.812  13.179  1.1165  0.1355 -0.5591
 1459UDC     C516043  10.805  10.677  13.250 -0.2465  0.5948 -0.0811
 1459UDC     C616044  10.649  10.655  13.234  0.5536  0.3884 -0.3522
 1459UDC     C716045  10.552  10.750  13.316  0.2124 -0.1529  0.2551
 1459UDC     C816046  10.399  10.720  13.319 -1.2094  0.8697  0.6407
 1459UDC     C916047  10.309  10.784  13.424  0.0627  0.6093  0.4215
 1459UDC    C1016048  10.278  10.927  13.387  0.6121  0.8993  1.0389
 1459UDC    C1116049  10.160  11.000  13.456 -0.2969 -0.3698 -0.0683
 1460UDC     C116050   7.277  14.685   7.175  0.8247  0.0387 -0.4637
 1460UDC     C216051   7.197  14.587   7.264  0.2913 -0.7505 -0.2216
 1460UDC     C316052   7.253  14.602   7.411 -0.1162  0.7715 -0.5362
 1460UDC     C416053   7.227  14.744   7.466  1.0438 -0.0056 -0.3347
 1460UDC     C516054   7.080  14.798   7.451 -0.1126  0.1097  1.0814
 1460UDC     C616055   7.078  14.951   7.423 -0.3387  0.9586  0.4038
 1460UDC     C716056   6.934  14.995   7.377  0.8912 -0.0268 -0.7502
 1460UDC     C816057   6.807  14.956   7.459 -0.9586 -0.7446 -1.2604
 1460UDC     C916058   6.690  14.978   7.362  0.1270  0.3463  0.6084
 1460UDC    C1016059   6.573  15.053   7.415  0.6051 -0.5235 -0.0144
 1460UDC    C1116060   6.436  15.050   7.342  0.0685 -0.5651  0.6491
 1461UDC     C116061   5.259  18.569  11.834 -1.1297 -0.7370 -0.4142
 1461UDC     C216062   5.301  18.567  11.684 -0.7167 -0.7961 -0.3425
 1461UDC     C316063   5.296  18.710  11.618  0.9662  0.0848 -0.5247
 1461UDC     C416064   5.292  18.708  11.469  0.2908  0.3520  0.3718
 1461UDC     C516065   5.239  18.833  11.390  0.5613 -0.0276  0.2734
 1461UDC     C616066   5.247  18.824  11.237  0.2957  1.3053  0.2213
 1461UDC     C716067   5.390  18.812  11.191  0.2038  0.1153  0.7913
 1461UDC     C816068   5.466  18.934  11.224 -0.4556 -0.7633  0.2654
 1461UDC     C916069   5.598  18.930  11.144  0.3939  0.8885  1.0005
 1461UDC    C1016070   5.699  18.815  11.162 -0.0242 -1.3688  0.2943
 1461UDC    C1116071   5.848  18.857  11.162 -0.1827 -0.4912  0.7041
 1462UDC     C116072   2.955   2.606  15.854 -0.8165  0.2021 -1.0741
 1462UDC     C216073   2.840   2.714  15.831 -0.2028 -0.1551 -0.0552
 1462UDC     C316074   2.820   2.836  15.915 -0.2564 -0.1834 -0.0140
 1462UDC     C416075   2.681   2.859  15.959  0.0860 -0.0510 -0.0236
 1462UDC     C516076   2.641   2.778  16.083  0.6821  0.1983  0.8431
 1462UDC     C616077   2.493   2.785  16.139  0.6907 -1.2336  0.4974
 1462UDC     C716078   2.452   2.673  16.223  0.4977 -0.5998 -0.9836
 1462UDC     C816079   2.305   2.661  16.269 -1.3761 -0.2748  0.2754
 1462UDC     C916080   2.275   2.514  16.307  0.8058  1.2827  0.0764
 1462UDC    C1016081   2.140   2.477  16.387  0.8832 -0.0502  0.2642
 1462UDC    C1116082   2.090   2.335  16.357 -0.2928  0.2618 -0.3260
 1463UDC     C116083   2.962  11.388  18.906 -0.4524  0.1090 -0.2851
 1463UDC     C216084   2.845  11.475  18.851  0.1821  1.0889  0.6919
 1463UDC     C316085   2.761  11.558  18.950 -0.7480 -0.0965  0.4097
 1463UDC     C416086   2.835  11.597  19.082  0.0780  0.4819  0.3810
 1463UDC     C516087   2.742  11.696  19.162 -0.0455  0.2562  0.1618
 1463UDC     C616088   2.830  11.762  19.266 -0.8194 -1.2353 -0.5626
 1463UDC     C716089   2.766  11.874  19.359 -0.0923 -0.0509 -0.2306
 1463UDC     C816090   2.776  12.024  19.316  0.2509  0.0221  0.6612
 1463UDC     C916091   2.711  12.125  19.412 -0.8155 -0.4400  0.5829
 1463UDC    C1016092   2.553  12.129  19.409  0.6346  1.2580 -0.4144
 1463UDC    C1116093   2.500  12.264  19.450 -0.4799 -0.8587  0.6369
 1464UDC     C116094   9.787   8.579   4.445 -0.2087 -0.1272  0.1591
 1464UDC     C216095   9.721   8.601   4.590  0.0905  1.2561 -0.1669
 1464UDC     C316096   9.590   8.519   4.610  0.2912  0.0398 -0.3050
 1464UDC     C416097   9.458   8.566   4.547 -0.7351 -0.2155  1.0612
 1464UDC     C516098   9.333   8.489   4.597  0.7130  0.6681 -0.3269
 1464UDC     C616099   9.205   8.496   4.504 -0.3684 -0.2157 -0.8715
 1464UDC     C716100   9.109   8.605   4.532  0.5335  0.0538  0.2851
 1464UDC     C816101   9.058   8.604   4.676  0.7629  0.8183  0.0811
 1464UDC     C916102   8.990   8.468   4.707 -0.0349 -0.1966 -0.0087
 1464UDC    C1016103   9.020   8.447   4.857  0.9837 -0.3932  0.9726
 1464UDC    C1116104   8.980   8.311   4.921  1.2139  0.0175 -0.0005
 1465UDC     C116105   4.818  13.716  15.952 -0.2649 -0.2264  0.7891
 1465UDC     C216106   4.947  13.763  15.879  0.5284  0.0152 -1.7805
 1465UDC     C316107   4.915  13.854  15.762  0.2642  1.2454  0.4692
 1465UDC     C416108   4.849  13.809  15.629  0.0329 -0.1909  0.1544
 1465UDC     C516109   4.856  13.898  15.505 -0.5017 -0.0527 -0.0342
 1465UDC     C616110   4.772  13.838  15.390 -0.5335 -0.0083  1.2423
 1465UDC     C716111   4.784  13.880  15.244  0.1797  0.0488 -0.2210
 1465UDC     C816112   4.702  14.004  15.210  0.0625 -1.1176 -0.6895
 1465UDC     C916113   4.681  14.049  15.058  0.6338  0.5180 -0.5253
 1465UDC    C1016114   4.580  13.950  15.003  0.1674 -0.3001 -1.5923
 1465UDC    C1116115   4.434  14.006  15.004 -0.1062 -0.2210 -0.1494
 1466UDC     C116116   0.134  14.457   1.824  0.1141  0.3678  0.9866
 1466UDC     C216117   0.220  14.352   1.892 -1.1893 -0.4274  0.0280
 1466UDC     C316118   0.298  14.394   2.019  0.3828 -0.9754  1.2341
 1466UDC     C416119   0.228  14.459   2.139 -0.2816  0.7520 -0.7691
 1466UDC     C516120   0.267  14.396   2.272 -1.0643  0.0723 -0.5491
 1466UDC     C616121   0.279  14.493   2.390 -1.2885  0.5957 -0.4960
 1466UDC     C716122   0.161  14.581   2.436 -0.2442 -0.0108  1.0730
 1466UDC     C816123   0.161  14.683   2.554  0.0746  0.8418  0.6636
 1466UDC     C916124   0.026  14.726   2.610 -0.2036 -0.5515  0.4786
 1466UDC    C1016125  -0.009  14.709   2.765  0.6847  0.1074 -0.5076
 1466UDC    C1116126  -0.155  14.709   2.791 -0.4221 -0.5802 -0.4411
 1467UDC     C116127  18.133  16.048  11.143 -0.8026 -0.5742 -1.0554
 1467UDC     C216128  18.102  15.899  11.184 -0.3427 -1.4236  1.1002
 1467UDC     C316129  18.124  15.791  11.070 -0.9329 -0.3166 -0.3042
 1467UDC     C416130  18.275  15.762  11.044 -0.2761  0.3856 -0.8704
 1467UDC     C516131  18.330  15.632  11.104  1.1685 -0.9226 -0.1378
 1467UDC     C616132  18.458  15.659  11.181  0.6833  0.7592 -0.2054
 1467UDC     C716133  18.531  15.538  11.243 -0.9817  0.8767  0.7799
 1467UDC     C816134  18.484  15.537  11.393 -1.0374 -0.0395  0.4922
 1467UDC     C916135  18.518  15.392  11.443 -0.5336  0.1654 -1.1690
 1467UDC    C1016136  18.670  15.356  11.459 -0.0794  1.3657 -0.5020
 1467UDC    C1116137  18.712  15.228  11.528 -0.4598  1.1477 -0.1225
 1468UDC     C116138  14.162   8.435   9.822 -0.2210  0.7600 -0.5415
 1468UDC     C216139  14.198   8.571   9.756  0.2398  0.9794  0.4239
 1468UDC     C316140  14.345   8.584   9.707  0.0012 -0.1533 -0.6659
 1468UDC     C416141  14.354   8.524   9.574 -0.4447  0.4584  0.3120
 1468UDC     C516142  14.455   8.593   9.472  0.5759 -0.3604  0.6966
 1468UDC     C616143  14.452   8.533   9.331 -0.7060 -0.5867 -0.0912
 1468UDC     C716144  14.551   8.612   9.237  0.7831 -0.4165  0.6519
 1468UDC     C816145  14.550   8.566   9.088 -0.1893  0.6099  0.9754
 1468UDC     C916146  14.587   8.659   8.974 -0.1201  0.7125 -0.1479
 1468UDC    C1016147  14.577   8.559   8.859 -1.1316  0.4009  0.5785
 1468UDC    C1116148  14.676   8.438   8.880 -0.6308 -0.8362 -0.3571
 1469UDC     C116149   6.851  18.140  18.113 -0.9999  0.0879  0.8396
 1469UDC     C216150   6.907  18.009  18.174 -0.5158  0.6674  0.0013
 1469UDC     C316151   7.055  17.982  18.145  0.6129  0.1821 -0.9208
 1469UDC     C416152   7.127  17.874  18.231 -0.4856  0.2269 -0.8844
 1469UDC     C516153   7.078  17.737  18.189 -0.7387 -0.0066  0.7044
 1469UDC     C616154   7.132  17.708  18.051 -0.2582  0.7494  0.5623
 1469UDC     C716155   7.122  17.559  18.021 -0.2087  0.1810  0.4108
 1469UDC     C816156   7.191  17.518  17.889 -0.5259  0.5586 -0.1138
 1469UDC     C916157   7.189  17.363  17.889 -0.5468 -0.4041  1.3766
 1469UDC    C1016158   7.275  17.296  17.780 -0.8705 -0.1790  0.4115
 1469UDC    C1116159   7.261  17.146  17.768  0.5477 -1.4444  0.7035
 1470UDC     C116160  11.564  10.428  17.288 -0.4940 -0.6409 -0.3983
 1470UDC     C216161  11.621  10.405  17.431 -0.3622  0.7412  1.2327
 1470UDC     C316162  11.555  10.510  17.522  0.3263 -0.0486 -0.4863
 1470UDC     C416163  11.627  10.500  17.664 -0.4652  0.3737 -0.0870
 1470UDC     C516164  11.561  10.584  17.774 -1.5442 -0.1566 -0.0990
 1470UDC     C616165  11.611  10.542  17.921  0.4721 -0.1255  0.7243
 1470UDC     C716166  11.729  10.445  17.950  0.7254  0.5077 -0.0897
 1470UDC     C816167  11.807  10.453  18.084 -0.8031  0.1926 -0.7570
 1470UDC     C916168  11.914  10.563  18.098  0.4695 -0.0264 -0.9512
 1470UDC    C1016169  12.023  10.578  17.991 -0.5108 -0.6338 -0.1175
 1470UDC    C1116170  12.036  10.722  17.932 -0.2201  0.2585  0.0432
 1471UDC     C116171   2.402  13.508   8.828  0.6596 -1.5260 -0.1449
 1471UDC     C216172   2.541  13.527   8.755 -0.8979  0.1215 -0.3031
 1471UDC     C316173   2.514  13.639   8.662  0.7201  0.7920  0.6811
 1471UDC     C416174   2.427  13.584   8.542  0.3492  0.3783 -0.3067
 1471UDC     C516175   2.346  13.686   8.466  0.3701  0.8048  0.2501
 1471UDC     C616176   2.426  13.766   8.364 -0.1220 -0.5953 -0.5879
 1471UDC     C716177   2.421  13.703   8.223 -1.0564 -0.2114 -0.1622
 1471UDC     C816178   2.517  13.770   8.126 -0.7471 -0.3901 -0.4340
 1471UDC     C916179   2.503  13.697   7.997  0.5697 -0.3692  0.7728
 1471UDC    C1016180   2.617  13.729   7.901 -0.2989  0.0711  0.4534
 1471UDC    C1116181   2.647  13.642   7.777 -0.3508  0.3865  0.5859
 1472UDC     C116182  12.059   7.338  12.995 -0.4833  0.5802 -0.6559
 1472UDC     C216183  12.104   7.186  12.993 -0.8623 -0.0962 -0.2723
 1472UDC     C316184  11.984   7.102  12.942  0.4248  0.2188 -0.6015
 1472UDC     C416185  12.009   7.013  12.818  0.1848  0.1675  1.0198
 1472UDC     C516186  11.924   6.885  12.813 -0.9783  0.0883  0.3201
 1472UDC     C616187  11.951   6.785  12.698  0.0067  0.5709  0.4233
 1472UDC     C716188  12.009   6.656  12.760 -0.0611  0.1823  1.4607
 1472UDC     C816189  11.910   6.539  12.748 -1.3648  0.4982 -0.0506
 1472UDC     C916190  11.954   6.401  12.795  0.1305  0.4363 -0.2947
 1472UDC    C1016191  12.070   6.344  12.709  0.2687  0.2582  0.0429
 1472UDC    C1116192  12.074   6.192  12.750 -0.4738 -0.5728 -0.2823
 1473UDC     C116193   5.148  16.238  15.063  0.2609 -1.2025  0.0909
 1473UDC     C216194   5.125  16.112  14.979  0.6203  0.4333  0.1597
 1473UDC     C316195   5.235  16.074  14.884  0.3065  0.4550  0.1344
 1473UDC     C416196   5.228  15.934  14.834  0.5699  0.5459  0.6747
 1473UDC     C516197   5.284  15.840  14.936 -0.3320  0.4315 -0.6110
 1473UDC     C616198   5.431  15.887  14.975 -0.3099  0.5126 -0.0859
 1473UDC     C716199   5.556  15.838  14.894 -0.3713  0.5807  0.1337
 1473UDC     C816200   5.670  15.943  14.914 -0.4924  1.5349  0.4818
 1473UDC     C916201   5.778  15.948  14.811  0.0526 -0.3987 -0.0227
 1473UDC    C1016202   5.906  16.032  14.855  0.2531 -0.2006 -0.3968
 1473UDC    C1116203   5.982  15.961  14.963 -0.5993  0.0721  0.0984
 1474UDC     C116204   8.879   4.118  18.142 -0.5533 -0.2531 -0.4867
 1474UDC     C216205   8.815   4.231  18.222  0.2780 -1.4601 -0.2316
 1474UDC     C316206   8.697   4.297  18.148  0.4408 -0.6703 -0.2653
 1474UDC     C416207   8.581   4.208  18.108  0.3683  0.2029  1.1998
 1474UDC     C516208   8.475   4.162  18.212 -0.0395  0.5954  1.1161
 1474UDC     C616209   8.416   4.028  18.172 -0.3261 -0.1213  0.2927
 1474UDC     C716210   8.539   3.960  18.113 -0.1392 -0.6108 -0.0979
 1474UDC     C816211   8.507   3.828  18.048  0.4603  0.0542  0.6473
 1474UDC     C916212   8.641   3.758  18.017 -0.0940 -0.4415  0.9253
 1474UDC    C1016213   8.723   3.846  17.924  0.0683 -0.9875  0.2891
 1474UDC    C1116214   8.689   3.847  17.768 -0.4046 -0.2590 -0.5962
 1475UDC     C116215   4.123  16.697   6.795  0.2361  0.0116  0.0387
 1475UDC     C216216   4.094  16.558   6.849 -0.1769 -0.0227 -0.3310
 1475UDC     C316217   3.965  16.549   6.929 -0.2138  0.4547  0.0473
 1475UDC     C416218   3.921  16.675   7.019 -0.4446 -0.0546  0.0283
 1475UDC     C516219   3.787  16.659   7.092  0.9691  0.5504 -0.3819
 1475UDC     C616220   3.796  16.605   7.237 -0.5417  0.8058  1.0104
 1475UDC     C716221   3.791  16.446   7.253 -0.8354 -0.4779 -0.0073
 1475UDC     C816222   3.918  16.356   7.231  0.1318 -0.4434  0.5705
 1475UDC     C916223   4.000  16.349   7.359 -0.3129 -0.1356 -0.2696
 1475UDC    C1016224   4.126  16.263   7.362 -1.2110 -0.4977  0.5616
 1475UDC    C1116225   4.098  16.112   7.355  0.8324 -0.4043  0.9284
 1476UDC     C116226  18.906  19.174  10.488  0.8619 -0.2013 -0.2956
 1476UDC     C216227  18.899  19.260  10.613  0.9656 -0.0012  0.0340
 1476UDC     C316228  19.030  19.287  10.687  0.2905  0.0358 -0.0914
 1476UDC     C416229  19.075  19.435  10.668 -0.4569  0.2236 -0.1599
 1476UDC     C516230  19.208  19.451  10.740  0.5201 -0.9104 -0.2828
 1476UDC     C616231  19.313  19.381  10.659 -0.0046  0.0026  1.2162
 1476UDC     C716232  19.382  19.468  10.556 -0.2862  0.0331 -0.3972
 1476UDC     C816233  19.490  19.561  10.622  0.8059 -0.3782  0.1683
 1476UDC     C916234  19.496  19.694  10.548 -0.6466 -0.8755 -0.1274
 1476UDC    C1016235  19.614  19.780  10.594 -0.2611 -0.7834  0.4536
 1476UDC    C1116236  19.585  19.846  10.728 -1.0381  0.0905 -0.0916
 1477UDC     C116237   0.155   5.206  12.417  0.8701 -0.8535  0.5928
 1477UDC     C216238   0.171   5.119  12.545  0.4961  0.0707  0.0975
 1477UDC     C316239   0.091   4.990  12.512  0.6725 -0.1629  0.7034
 1477UDC     C416240  -0.015   4.943  12.608 -0.5315 -0.4553  0.8945
 1477UDC     C516241  -0.108   4.835  12.560  0.0868  0.5237 -0.5786
 1477UDC     C616242  -0.044   4.700  12.585 -0.8643  0.2659  0.5474
 1477UDC     C716243  -0.043   4.654  12.729 -0.1030 -0.5167 -0.6521
 1477UDC     C816244  -0.183   4.611  12.782 -0.0312 -0.0266  0.9921
 1477UDC     C916245  -0.181   4.608  12.935  1.2439  0.2302  0.7457
 1477UDC    C1016246  -0.072   4.510  12.989 -0.7938  0.1989 -0.2413
 1477UDC    C1116247  -0.115   4.458  13.127 -0.0352 -0.3731  0.4783
 1478UDC     C116248   0.431   5.070  16.052 -0.5802 -0.1747  0.4929
 1478UDC     C216249   0.379   5.017  15.914 -0.6410 -0.6273  0.2527
 1478UDC     C316250   0.482   4.955  15.815 -0.6294  0.3801  0.8321
 1478UDC     C416251   0.594   4.866  15.870 -0.1641 -0.5071 -0.6129
 1478UDC     C516252   0.676   4.802  15.754  0.2123 -0.2354  0.4668
 1478UDC     C616253   0.785   4.707  15.789  0.2305 -0.0351  1.0971
 1478UDC     C716254   0.853   4.663  15.656 -0.1981  0.7437  0.2502
 1478UDC     C816255   1.008   4.660  15.686  0.1285 -0.0370 -1.2065
 1478UDC     C916256   1.079   4.529  15.666 -0.4246 -0.3192 -0.2508
 1478UDC    C1016257   1.232   4.532  15.668  0.7484 -0.1932  0.0963
 1478UDC    C1116258   1.298   4.592  15.789  0.3998 -0.0204  0.5646
 1479UDC     C116259  15.626   7.992  18.430  0.5913 -0.7287 -0.5135
 1479UDC     C216260  15.513   7.981  18.529  1.1099  0.3657 -0.6578
 1479UDC     C316261  15.371   8.000  18.472 -0.2418  0.1316  0.5476
 1479UDC     C416262  15.240   7.990  18.558  0.3919  0.1816  0.3384
 1479UDC     C516263  15.145   8.107  18.536  0.4611  0.6139 -0.0931
 1479UDC     C616264  15.022   8.117  18.630 -0.2220  0.5632 -0.1071
 1479UDC     C716265  15.053   8.203  18.754  0.8264  0.3461  0.7248
 1479UDC     C816266  14.956   8.185  18.871 -0.9329  0.5269 -0.0296
 1479UDC     C916267  14.970   8.289  18.984  0.0425  0.1996  0.5125
 1479UDC    C1016268  14.888   8.271  19.110 -0.0913  0.3664  0.1038
 1479UDC    C1116269  14.953   8.332  19.243  0.4268 -0.0231 -0.3629
 1480UDC     C116270   3.858   7.521  16.165  0.2865  0.6187 -0.0133
 1480UDC     C216271   3.771   7.640  16.191  0.5152  1.2821  0.1498
 1480UDC     C316272   3.813   7.742  16.084  1.3966 -0.7309  0.4563
 1480UDC     C416273   3.780   7.715  15.933  0.2345  0.0873  0.0744
 1480UDC     C516274   3.815   7.833  15.846  0.5741 -1.2273  1.1891
 1480UDC     C616275   3.886   7.808  15.716  1.4401  0.4671  1.2210
 1480UDC     C716276   3.797   7.715  15.627 -0.1910 -0.8860  0.4949
 1480UDC     C816277   3.882   7.683  15.496  0.4096  0.3057 -0.7209
 1480UDC     C916278   3.821   7.595  15.383 -0.9690  1.1733 -0.7542
 1480UDC    C1016279   3.842   7.438  15.394  0.0309 -0.1114 -0.7385
 1480UDC    C1116280   3.863   7.383  15.539  0.3438 -0.2293 -0.7452
 1481UDC     C116281   8.777  16.272   4.151 -0.6879  0.5381 -0.4797
 1481UDC     C216282   8.909  16.319   4.084  0.5454  1.1110 -1.5442
 1481UDC     C316283   8.906  16.444   4.005 -0.3644 -0.7608 -0.5571
 1481UDC     C416284   8.999  16.564   4.048  0.2571  0.5542 -0.0383
 1481UDC     C516285   8.946  16.702   4.098 -0.3795 -0.2952 -1.1513
 1481UDC     C616286   9.043  16.803   4.168 -0.3006  1.0975  0.9694
 1481UDC     C716287   8.978  16.846   4.302  0.3483  0.4503  0.1347
 1481UDC     C816288   9.047  16.957   4.378  0.3417  0.1228  0.2731
 1481UDC     C916289   9.160  16.924   4.474  0.6662 -0.5778 -0.7551
 1481UDC    C1016290   9.223  17.054   4.530  0.0910  0.0960  0.9000
 1481UDC    C1116291   9.344  17.027   4.620  0.4400  0.5614 -0.0554
 1482UDC     C116292  15.401   5.800   8.791 -0.2452  1.0006 -0.8204
 1482UDC     C216293  15.251   5.775   8.783 -0.7103 -0.2550 -0.4314
 1482UDC     C316294  15.174   5.907   8.760 -0.3344  0.3290  0.1548
 1482UDC     C416295  15.030   5.894   8.802  1.5900  0.7283 -0.4784
 1482UDC     C516296  14.944   6.025   8.812  0.5791  1.5143 -0.3418
 1482UDC     C616297  14.845   6.060   8.700  0.1855  0.1332  0.4591
 1482UDC     C716298  14.891   5.995   8.568  0.3828 -0.0076 -0.4952
 1482UDC     C816299  14.812   6.021   8.439  0.1252  0.5875 -0.1095
 1482UDC     C916300  14.780   5.910   8.330 -1.1425  0.4816 -0.9841
 1482UDC    C1016301  14.766   5.979   8.197  1.0968  0.0390  1.1832
 1482UDC    C1116302  14.655   6.085   8.208 -0.4994 -0.7889 -0.3187
 1483UDC     C116303  13.156  14.282  14.859  0.2877 -0.6211 -0.6158
 1483UDC     C216304  13.018  14.264  14.936 -1.2578 -1.1643  0.2706
 1483UDC     C316305  12.972  14.376  15.025 -0.4841 -0.5443 -0.3157
 1483UDC     C416306  13.097  14.436  15.098 -0.2686 -0.1034  1.3273
 1483UDC     C516307  13.111  14.582  15.067  0.9195 -0.2990  0.7857
 1483UDC     C616308  13.001  14.658  15.143  1.2641 -0.5627  0.2108
 1483UDC     C716309  12.981  14.799  15.089  0.2520  1.1729  0.8189
 1483UDC     C816310  12.950  14.809  14.946  0.1862 -0.3615  0.0559
 1483UDC     C916311  12.961  14.957  14.916 -1.1751 -0.2643  0.7139
 1483UDC    C1016312  12.855  15.037  14.978 -0.3771 -0.3957 -0.7749
 1483UDC    C1116313  12.840  15.176  14.904 -0.3959  0.7892 -0.3383
 1484UDC     C116314   0.783   8.302   0.491  1.3113 -0.1280 -0.1895
 1484UDC     C216315   0.921   8.363   0.470  0.2162  0.4908  0.5977
 1484UDC     C316316   1.011   8.335   0.584 -0.7257 -0.3261 -0.5553
 1484UDC     C416317   1.093   8.209   0.551 -0.6042  1.2684  0.5883
 1484UDC     C516318   1.119   8.175   0.392  0.9878 -0.8240  0.7262
 1484UDC     C616319   1.228   8.067   0.366 -1.0625  0.2854  0.2484
 1484UDC     C716320   1.184   7.929   0.428 -0.6641  0.7520  0.3878
 1484UDC     C816321   1.210   7.826   0.302  0.6331 -1.1455  0.2372
 1484UDC     C916322   1.152   7.684   0.307 -0.1263 -1.1666  0.9142
 1484UDC    C1016323   1.083   7.667   0.167 -0.3436 -0.1927 -1.4705
 1484UDC    C1116324   0.950   7.744   0.150  0.2542  0.6085  1.0648
 1485UDC     C116325   2.121   1.867  18.798 -0.6317 -0.6178 -1.4091
 1485UDC     C216326   2.118   1.722  18.748  1.0959 -0.5608 -0.3765
 1485UDC     C316327   2.153   1.612  18.854  0.1024  0.3198  0.1513
 1485UDC     C416328   2.285   1.656  18.919  0.1787 -0.4769 -0.2253
 1485UDC     C516329   2.348   1.572  19.028 -0.1830 -0.0449  0.6868
 1485UDC     C616330   2.498   1.542  18.997 -0.4329 -0.7656 -1.1176
 1485UDC     C716331   2.607   1.625  19.071 -0.4088  1.4492  0.6353
 1485UDC     C816332   2.740   1.554  19.034  0.9130  0.0658  0.6066
 1485UDC     C916333   2.834   1.597  19.140  0.1444 -0.3547 -0.7150
 1485UDC    C1016334   2.971   1.576  19.096  0.3964 -0.4319 -0.2934
 1485UDC    C1116335   3.045   1.699  19.038  0.7430  0.2094  0.2382
 1486UDC     C116336   2.010   1.662   3.950  0.0384 -0.3620 -0.0877
 1486UDC     C216337   2.127   1.693   3.853  0.3141  0.2705 -0.5493
 1486UDC     C316338   2.124   1.831   3.780 -1.7185 -0.1139  0.5595
 1486UDC     C416339   2.004   1.873   3.705  0.6562  0.5810  0.5929
 1486UDC     C516340   1.988   2.017   3.675 -0.0643 -0.3734 -0.0145
 1486UDC     C616341   2.072   2.064   3.557  1.0702  0.7329  0.0978
 1486UDC     C716342   2.010   2.025   3.419 -0.3639  1.0010  0.6641
 1486UDC     C816343   2.114   2.049   3.306  0.0656 -0.2174 -0.4658
 1486UDC     C916344   2.243   1.968   3.299  0.2347  0.0269 -0.3142
 1486UDC    C1016345   2.201   1.826   3.257 -0.5836  0.6655 -0.6365
 1486UDC    C1116346   2.098   1.809   3.142  0.5849  0.8825  0.6062
 1487UDC     C116347  19.007   3.345  15.575  0.9593  0.4193 -0.7054
 1487UDC     C216348  19.127   3.326  15.489 -0.9594  0.1313  0.0489
 1487UDC     C316349  19.092   3.248  15.360  0.1182 -0.7607  0.3161
 1487UDC     C416350  19.026   3.122  15.399  0.4532  0.1310  0.5772
 1487UDC     C516351  18.945   3.050  15.282  0.0338  0.1911  0.4227
 1487UDC     C616352  18.817   3.135  15.262 -1.6469  0.3580 -0.1020
 1487UDC     C716353  18.715   3.040  15.190 -0.4815  0.6530 -0.3990
 1487UDC     C816354  18.750   3.009  15.041 -0.1371 -0.3143 -1.0556
 1487UDC     C916355  18.645   2.954  14.942  0.2080 -1.5855 -0.5961
 1487UDC    C1016356  18.696   2.898  14.806  1.5937  0.4420  0.8285
 1487UDC    C1116357  18.586   2.815  14.731  0.3029 -0.4151  0.7779
 1488UDC     C116358   1.954  17.343   0.534  0.1538  0.1170 -0.0759
 1488UDC     C216359   1.860  17.228   0.493 -0.0897  0.4508 -0.5774
 1488UDC     C316360   1.858  17.125   0.610  0.3608 -1.0913 -0.0082
 1488UDC     C416361   1.982  17.111   0.692  0.5056 -0.0124 -1.0888
 1488UDC     C516362   1.979  16.968   0.743  0.5896 -1.1805  0.7431
 1488UDC     C616363   2.103  16.899   0.815 -0.2026  0.0514 -0.7596
 1488UDC     C716364   2.202  16.952   0.917 -0.0173 -0.6040 -0.3922
 1488UDC     C816365   2.124  17.040   1.020  0.1752 -0.3070 -0.3218
 1488UDC     C916366   2.208  17.135   1.114  1.2185  0.4067 -0.0681
 1488UDC    C1016367   2.166  17.277   1.149 -0.8622  0.3671 -0.1200
 1488UDC    C1116368   2.264  17.345   1.243 -0.2138  0.2768  0.4091
 1489UDC     C116369  18.221  12.885  14.552 -0.1354  0.3490 -0.3227
 1489UDC     C216370  18.143  12.995  14.482 -0.7894 -0.6132 -0.3120
 1489UDC     C316371  17.995  12.964  14.466 -0.0556  0.6897  0.9858
 1489UDC     C416372  17.918  13.092  14.437 -0.0319 -1.0017 -0.2312
 1489UDC     C516373  17.768  13.067  14.395 -1.3869 -1.4488  0.7859
 1489UDC     C616374  17.689  12.979  14.490 -0.7151 -0.1666 -1.0762
 1489UDC     C716375  17.537  12.984  14.495  0.4029 -0.0818 -0.2269
 1489UDC     C816376  17.476  12.885  14.600 -0.4410  0.4842  1.0036
 1489UDC     C916377  17.543  12.880  14.742  0.3623 -0.0897 -0.3889
 1489UDC    C1016378  17.498  12.752  14.816  0.7347 -0.4501 -0.1956
 1489UDC    C1116379  17.588  12.680  14.921 -0.4364 -0.0241  0.4111
 1490UDC     C116380   6.558  11.979   7.420  0.0695  0.4073 -0.3566
 1490UDC     C216381   6.439  11.890   7.446  1.2147  0.0674  0.8533
 1490UDC     C316382   6.432  11.738   7.479  0.2487  0.6180 -0.2308
 1490UDC     C416383   6.301  11.668   7.502  0.8927 -0.3151 -1.4536
 1490UDC     C516384   6.234  11.630   7.375  0.5861 -0.5381  0.0746
 1490UDC     C616385   6.091  11.580   7.410  0.6087 -0.4634  0.3086
 1490UDC     C716386   5.997  11.536   7.303 -0.5197  0.1459 -0.1333
 1490UDC     C816387   5.860  11.611   7.296 -1.5171 -0.4373 -1.2286
 1490UDC     C916388   5.758  11.555   7.398 -0.2998 -0.2999  0.7262
 1490UDC    C1016389   5.619  11.603   7.355 -1.3270  0.7284  0.6451
 1490UDC    C1116390   5.599  11.750   7.391 -0.7916  0.2422 -0.1049
 1491UDC     C116391   6.982  16.096  14.087  0.0809 -0.4617  0.6895
 1491UDC     C216392   7.134  16.106  14.050 -0.1046 -0.6727 -1.1481
 1491UDC     C316393   7.172  16.168  13.914 -0.0960 -0.1175 -0.2812
 1491UDC     C416394   7.193  16.067  13.797  0.4929  0.6174 -0.5795
 1491UDC     C516395   7.208  16.117  13.656  0.9384 -1.7011  0.3249
 1491UDC     C616396   7.214  16.020  13.538  0.4807  0.5650 -0.3957
 1491UDC     C716397   7.307  15.899  13.552 -0.9177  0.3459 -0.1541
 1491UDC     C816398   7.380  15.855  13.418  0.9001 -0.0699  0.4874
 1491UDC     C916399   7.302  15.773  13.317 -0.2593 -0.3289 -0.0605
 1491UDC    C1016400   7.357  15.760  13.175  0.9404 -0.4940  0.1615
 1491UDC    C1116401   7.359  15.895  13.098 -0.0858  1.6105 -0.0357
 1492UDC     C116402  12.150   6.195  17.175 -0.0130 -0.0980  0.2058
 1492UDC     C216403  12.139   6.201  17.326 -0.2826  0.5764 -1.0482
 1492UDC     C316404  12.268   6.197  17.411  0.5880  0.9496  0.8939
 1492UDC     C416405  12.235   6.165  17.562 -0.1715  0.1221 -0.0096
 1492UDC     C516406  12.364   6.173  17.652  0.0782  0.0113  0.1707
 1492UDC     C616407  12.447   6.296  17.628 -0.9011  0.6582 -0.1105
 1492UDC     C716408  12.552   6.316  17.744 -0.7027 -0.1366  0.4192
 1492UDC     C816409  12.679   6.394  17.717 -0.6689 -0.6819  0.0644
 1492UDC     C916410  12.773   6.404  17.834  0.0227  0.4563  0.0772
 1492UDC    C1016411  12.884   6.508  17.798  0.0749 -0.0841 -0.7095
 1492UDC    C1116412  12.980   6.553  17.908 -0.2117 -0.0318 -0.2480
 1493UDC     C116413  14.289   2.633  17.673  0.1031 -0.6165  1.1506
 1493UDC     C216414  14.415   2.607  17.756 -1.0196  0.0498  0.0799
 1493UDC     C316415  14.478   2.734  17.797 -0.8591  0.5173 -0.0082
 1493UDC     C416416  14.603   2.739  17.889  0.3524 -0.1711 -0.1368
 1493UDC     C516417  14.626   2.648  18.010  0.3753 -0.2108  0.1757
 1493UDC     C616418  14.776   2.644  18.034 -0.4295 -0.1743  0.8973
 1493UDC     C716419  14.803   2.517  18.126  0.6098  1.0676 -0.3832
 1493UDC     C816420  14.805   2.564  18.275  0.7322 -0.0987 -0.3084
 1493UDC     C916421  14.837   2.442  18.358  0.3345 -0.7070 -0.9131
 1493UDC    C1016422  14.817   2.446  18.513  0.2778 -0.1095 -0.4835
 1493UDC    C1116423  14.786   2.302  18.549 -0.6069 -0.0486 -0.0842
 1494UDC     C116424  18.367   7.933  11.468 -0.3187  0.0073  0.3639
 1494UDC     C216425  18.287   7.805  11.466  0.5769 -0.7571 -0.4265
 1494UDC     C316426  18.378   7.684  11.434  0.0156 -0.5602  0.9367
 1494UDC     C416427  18.373   7.592  11.555  0.7177  0.1767 -0.7161
 1494UDC     C516428  18.493   7.493  11.568 -0.9969 -1.0117 -0.0184
 1494UDC     C616429  18.604   7.536  11.673 -0.4741  0.4125  0.9325
 1494UDC     C716430  18.548   7.582  11.806  0.6523  0.1556  0.4513
 1494UDC     C816431  18.572   7.499  11.936  0.0074 -0.1764 -0.5081
 1494UDC     C916432  18.631   7.572  12.067  0.2403  0.4018  0.2669
 1494UDC    C1016433  18.697   7.476  12.165 -0.2957  0.4311 -0.4859
 1494UDC    C1116434  18.617   7.410  12.286 -0.0202 -0.0236 -0.4763
 1495UDC     C116435  14.903   9.076  10.359 -0.9435 -0.4718 -0.3038
 1495UDC     C216436  14.997   9.145  10.263 -0.2550 -0.3918  0.0082
 1495UDC     C316437  15.142   9.091  10.261 -0.1132 -0.2853 -0.2965
 1495UDC     C416438  15.231   9.151  10.146  0.6460  0.1631 -0.2866
 1495UDC     C516439  15.327   9.042  10.116 -0.1803  0.7822  0.8224
 1495UDC     C616440  15.438   9.121  10.046  0.4586 -1.2367  0.1153
 1495UDC     C716441  15.512   9.020   9.953  0.0292 -0.5703 -0.0955
 1495UDC     C816442  15.635   9.087   9.887  0.9346  0.0585  0.3182
 1495UDC     C916443  15.587   9.219   9.820 -0.3484  0.0683  0.2283
 1495UDC    C1016444  15.692   9.270   9.713 -0.7729 -0.5013  0.4769
 1495UDC    C1116445  15.630   9.381   9.621 -0.9966 -0.4715  0.0057
 1496UDC     C116446   3.219  11.161   9.291 -0.4154 -0.0460  1.2636
 1496UDC     C216447   3.224  11.255   9.413  0.3847  1.6658  0.1259
 1496UDC     C316448   3.094  11.334   9.405  0.2487  0.8431 -0.4813
 1496UDC     C416449   3.055  11.399   9.541 -0.4018 -0.6386  1.3258
 1496UDC     C516450   3.151  11.508   9.585 -0.2913  0.1515  0.1732
 1496UDC     C616451   3.083  11.563   9.714  0.1016  0.2874 -0.4952
 1496UDC     C716452   2.953  11.631   9.674 -0.7147  0.3100  0.4608
 1496UDC     C816453   2.889  11.708   9.785  0.4768  1.6389  0.7262
 1496UDC     C916454   2.977  11.734   9.912 -0.3816  0.0374  0.4235
 1496UDC    C1016455   2.924  11.799  10.042 -0.1830 -0.2284 -0.5523
 1496UDC    C1116456   2.926  11.949  10.035 -0.0020 -0.1156  0.1258
 1497UDC     C116457   5.506   3.163   8.575 -1.1583 -0.3191  0.2871
 1497UDC     C216458   5.512   3.039   8.661 -0.3743 -0.2998  0.7471
 1497UDC     C316459   5.650   2.986   8.698  0.0816  0.1293 -0.1162
 1497UDC     C416460   5.649   2.853   8.779  0.9731 -1.0149 -0.5591
 1497UDC     C516461   5.602   2.736   8.688  0.2447 -1.1741 -0.3797
 1497UDC     C616462   5.640   2.611   8.763  0.9098 -1.3606  0.5955
 1497UDC     C716463   5.663   2.494   8.665  1.2238  0.9269 -0.4305
 1497UDC     C816464   5.717   2.373   8.733  0.2653  0.6006 -0.4640
 1497UDC     C916465   5.610   2.317   8.835 -0.4312  0.0179  0.1242
 1497UDC    C1016466   5.673   2.223   8.941 -0.0862  0.1544 -0.8192
 1497UDC    C1116467   5.823   2.233   8.960  0.1759  0.5315  0.3228
 1498UDC     C116468   0.610  17.502   5.168 -0.7560 -0.4900 -0.1080
 1498UDC     C216469   0.521  17.387   5.121  0.9410  0.9817 -0.3879
 1498UDC     C316470   0.405  17.421   5.019  0.0270  0.4688 -0.0285
 1498UDC     C416471   0.428  17.461   4.868  0.1662  1.0867  0.1664
 1498UDC     C516472   0.311  17.511   4.786 -0.3572 -0.1035 -0.5917
 1498UDC     C616473   0.191  17.423   4.738  1.5170 -1.1594  0.8107
 1498UDC     C716474   0.152  17.473   4.591 -0.8833  0.3473  0.2162
 1498UDC     C816475   0.018  17.410   4.546 -0.0686  0.4999  0.8780
 1498UDC     C916476   0.023  17.273   4.471 -1.6132 -1.2790  0.1930
 1498UDC    C1016477  -0.123  17.215   4.446 -0.1232  0.4376 -1.2434
 1498UDC    C1116478  -0.156  17.137   4.577  1.0073 -0.6835  0.5347
 1499UDC     C116479  18.316  10.417  17.524 -0.1867  0.2815 -0.1381
 1499UDC     C216480  18.381  10.283  17.467  0.0622 -0.2833  0.2906
 1499UDC     C316481  18.374  10.166  17.566  0.4819 -0.6684  0.7540
 1499UDC     C416482  18.445  10.052  17.496 -0.5704 -0.5564  0.3840
 1499UDC     C516483  18.437   9.915  17.569 -0.2107  0.2771 -0.1302
 1499UDC     C616484  18.562   9.900  17.666  1.5156 -0.2675  0.0422
 1499UDC     C716485  18.531   9.792  17.771 -0.0157  0.2100  0.1565
 1499UDC     C816486  18.630   9.793  17.889 -0.8916  0.1537  0.7015
 1499UDC     C916487  18.633   9.922  17.958  0.4340  0.9058  0.0071
 1499UDC    C1016488  18.644   9.898  18.107  0.8149  0.0466  0.4745
 1499UDC    C1116489  18.677  10.033  18.175  0.4666  0.1957 -0.6477
 1500UDC     C116490   3.637  10.184  12.347  0.0908  0.0748  0.4439
 1500UDC     C216491   3.637  10.079  12.237 -0.1985  1.2939 -0.7641
 1500UDC     C316492   3.765   9.991  12.215 -1.1746 -0.4250  0.7556
 1500UDC     C416493   3.820   9.911  12.336  0.2901  0.2140  1.7825
 1500UDC     C516494   3.845   9.767  12.288  1.2349 -0.1712 -0.5484
 1500UDC     C616495   3.722   9.713  12.208 -0.7434 -1.0398 -0.6960
 1500UDC     C716496   3.750   9.583  12.143 -0.9801  0.8959 -0.5350
 1500UDC     C816497   3.620   9.533  12.084  0.9056 -0.4811 -0.3863
 1500UDC     C916498   3.633   9.389  12.027 -0.1267  0.3602  0.3353
 1500UDC    C1016499   3.501   9.357  11.957  0.1286 -0.1747 -0.5434
 1500UDC    C1116500   3.378   9.339  12.055 -0.4818  0.5318  0.1168
 1501UDC     C116501  16.195  13.243   2.604  0.2076  0.5074  0.2240
 1501UDC     C216502  16.332  13.300   2.575  0.3901  0.3299 -0.7267
 1501UDC     C316503  16.443  13.239   2.667  1.0202 -0.1021 -0.8209
 1501UDC     C416504  16.435  13.269   2.819  0.4330 -0.7715  0.5751
 1501UDC     C516505  16.496  13.409   2.818  1.0029  0.2573  0.7405
 1501UDC     C616506  16.472  13.493   2.939 -0.1019 -0.2975 -0.2442
 1501UDC     C716507  16.512  13.640   2.944 -0.0556 -0.2368 -0.3849
 1501UDC     C816508  16.486  13.707   3.079  0.4895 -0.0921 -0.5942
 1501UDC     C916509  16.483  13.864   3.078  0.2512 -0.0823 -0.2005
 1501UDC    C1016510  16.452  13.938   3.210 -0.9565  1.0884 -0.3147
 1501UDC    C1116511  16.531  13.896   3.338  0.5859  0.1322 -0.1732
 1502UDC     C116512  18.306  19.958  18.128 -0.4313 -1.7183  0.1094
 1502UDC     C216513  18.358  20.108  18.160  0.2143  0.0937 -0.0375
 1502UDC     C316514  18.256  20.205  18.207  0.9021  0.6835  0.7728
 1502UDC     C416515  18.188  20.148  18.335  0.4062  1.1039  1.0071
 1502UDC     C516516  18.257  20.156  18.472 -0.1572  0.8744 -0.2905
 1502UDC     C616517  18.308  20.305  18.473  0.1727  0.4586 -0.4795
 1502UDC     C716518  18.437  20.346  18.560  1.1254  0.6751 -0.6231
 1502UDC     C816519  18.463  20.484  18.602 -0.0537  0.0656  0.3950
 1502UDC     C916520  18.603  20.485  18.648 -0.6966  0.8473 -0.3558
 1502UDC    C1016521  18.619  20.374  18.760  0.4441  0.3782  0.2467
 1502UDC    C1116522  18.758  20.325  18.807  0.8323  0.2827 -0.3708
 1503UDC     C116523  18.770  16.867  19.037  0.7568  1.0493 -0.3438
 1503UDC     C216524  18.905  16.915  19.087 -0.0983 -1.3244 -0.1586
 1503UDC     C316525  18.907  16.888  19.241  0.5434  0.9310 -0.1564
 1503UDC     C416526  18.855  16.977  19.359 -0.1759  1.0310  0.8576
 1503UDC     C516527  18.868  16.923  19.504 -0.3389  0.3551 -0.5078
 1503UDC     C616528  18.829  16.777  19.542 -0.5724 -0.6819  1.3013
 1503UDC     C716529  18.944  16.690  19.503 -0.6992  0.7819 -0.5073
 1503UDC     C816530  18.897  16.541  19.519  0.3602  1.3788 -0.3058
 1503UDC     C916531  18.833  16.503  19.655  0.3625  0.0034 -0.4321
 1503UDC    C1016532  18.954  16.484  19.749  0.4693  0.1937  0.4539
 1503UDC    C1116533  18.908  16.406  19.873 -0.1066  0.1695 -0.8566
 1504UDC     C116534   6.284  15.066  10.451  0.1678 -0.5036  1.7686
 1504UDC     C216535   6.133  15.054  10.412  0.2207 -0.5886  0.1304
 1504UDC     C316536   6.029  15.164  10.445 -1.1077  0.7671 -0.5505
 1504UDC     C416537   6.038  15.212  10.593 -0.3571  0.8193  0.2757
 1504UDC     C516538   5.978  15.355  10.623 -0.3634  0.6439 -0.6325
 1504UDC     C616539   6.006  15.425  10.758  0.6099  0.5982 -0.0780
 1504UDC     C716540   6.114  15.375  10.856 -0.0198  0.0140  0.6046
 1504UDC     C816541   6.161  15.498  10.933 -0.6307  0.1784  0.5756
 1504UDC     C916542   6.297  15.512  11.012 -0.6109 -0.9391  0.5450
 1504UDC    C1016543   6.281  15.604  11.137 -1.6664  0.0157  0.4615
 1504UDC    C1116544   6.415  15.678  11.172  0.0695  0.1029  0.9478
 1505UDC     C116545  14.726   6.760   3.423  0.5627  0.4123  0.5188
 1505UDC     C216546  14.822   6.768   3.534  0.1520  1.5326 -0.2628
 1505UDC     C316547  14.734   6.796   3.664  0.7666  0.4119  0.5447
 1505UDC     C416548  14.621   6.689   3.676  0.4532 -0.0134 -0.2000
 1505UDC     C516549  14.499   6.750   3.747 -0.8530  0.1812  0.0883
 1505UDC     C616550  14.398   6.647   3.806 -0.0782  0.8031  0.6760
 1505UDC     C716551  14.292   6.628   3.688  0.7463 -0.8451 -0.3243
 1505UDC     C816552  14.230   6.773   3.670 -0.6526 -0.5110  0.8136
 1505UDC     C916553  14.134   6.797   3.550  0.7616 -0.1125  0.3311
 1505UDC    C1016554  13.997   6.728   3.571 -0.8203 -0.0853 -0.7842
 1505UDC    C1116555  13.926   6.732   3.439  0.5625  1.3242 -0.0179
 1506UDC     C116556   5.644   3.585  11.105  0.0952  0.4535  0.3205
 1506UDC     C216557   5.754   3.664  11.040 -1.2100  1.2419 -0.0154
 1506UDC     C316558   5.883   3.585  11.030  0.1733 -0.2675 -1.2204
 1506UDC     C416559   5.899   3.457  11.121 -1.0854 -0.0705 -0.3584
 1506UDC     C516560   6.008   3.350  11.107 -0.5146 -0.1475  0.8019
 1506UDC     C616561   6.072   3.299  11.239  0.2164 -0.8843 -0.2332
 1506UDC     C716562   6.177   3.387  11.309  1.3223  0.1894 -0.7085
 1506UDC     C816563   6.316   3.379  11.278  0.1094 -0.8934 -1.1768
 1506UDC     C916564   6.381   3.339  11.410  0.8214  1.2448 -0.3785
 1506UDC    C1016565   6.524   3.374  11.435 -1.2751 -0.2541 -1.2584
 1506UDC    C1116566   6.589   3.380  11.295  0.5250  0.1467 -0.5215
 1507UDC     C116567   4.968   8.017  15.298  0.3646  1.1636  0.2539
 1507UDC     C216568   4.813   8.018  15.321 -0.7037 -0.9223  1.0832
 1507UDC     C316569   4.756   7.998  15.461  1.9868  0.3920  0.4116
 1507UDC     C416570   4.620   7.927  15.466  0.5146  0.2256 -0.1831
 1507UDC     C516571   4.606   7.777  15.518 -0.0256 -0.7723  0.2347
 1507UDC     C616572   4.678   7.663  15.446  1.0702 -0.6074 -0.1316
 1507UDC     C716573   4.645   7.644  15.299 -0.1212 -0.6240 -0.3796
 1507UDC     C816574   4.519   7.568  15.259 -0.3566 -0.7957  0.1835
 1507UDC     C916575   4.518   7.579  15.114  0.9130 -0.2112  0.2918
 1507UDC    C1016576   4.421   7.469  15.059 -0.3478  0.3945 -0.0509
 1507UDC    C1116577   4.268   7.504  15.083  0.3592 -0.7138  0.6044
 1508UDC     C116578  12.577  15.083  12.586  0.9125  1.2646 -0.6249
 1508UDC     C216579  12.547  15.058  12.739 -1.2389  0.1244 -0.1554
 1508UDC     C316580  12.445  14.943  12.770 -0.1239  0.4940 -1.3515
 1508UDC     C416581  12.444  14.917  12.928  0.7145  0.3500 -0.1641
 1508UDC     C516582  12.372  15.037  12.989 -0.1498  0.4097 -0.5051
 1508UDC     C616583  12.377  15.047  13.144  0.2545  0.1981 -0.1022
 1508UDC     C716584  12.261  15.127  13.195 -0.4214  0.7610 -0.1373
 1508UDC     C816585  12.163  15.055  13.287  0.1794 -0.7281 -1.1181
 1508UDC     C916586  12.057  14.987  13.216 -0.4984 -1.5010 -0.2821
 1508UDC    C1016587  11.935  14.904  13.268 -0.3732  0.1459  1.1248
 1508UDC    C1116588  11.854  14.875  13.152 -0.2194  1.4871 -0.3184
 1509UDC     C116589  16.585   0.402  14.442 -0.1490 -0.0823 -1.4709
 1509UDC     C216590  16.621   0.526  14.528 -0.0947  0.0854  1.0312
 1509UDC     C316591  16.769   0.556  14.509 -1.1154  1.2000 -0.0378
 1509UDC     C416592  16.845   0.432  14.568 -0.5796 -0.1087 -0.1910
 1509UDC     C516593  16.992   0.460  14.566 -0.4975  0.1252 -0.8950
 1509UDC     C616594  17.027   0.584  14.660  0.3666  0.8908  0.2967
 1509UDC     C716595  17.086   0.544  14.804 -0.0901 -0.5834 -0.1966
 1509UDC     C816596  17.011   0.619  14.915 -0.1926 -0.0765  1.1936
 1509UDC     C916597  17.103   0.656  15.026 -0.3863  0.0588  1.3164
 1509UDC    C1016598  17.218   0.559  15.065 -0.0158  0.5012  0.1506
 1509UDC    C1116599  17.284   0.626  15.186 -0.9599  0.5809  0.0615
 1510UDC     C116600   3.487   3.149  17.574  1.2524  0.5891 -0.2962
 1510UDC     C216601   3.605   3.131  17.663  0.3399 -0.2455 -1.1108
 1510UDC     C316602   3.675   3.012  17.600 -0.3451 -0.3020 -1.6015
 1510UDC     C416603   3.744   3.014  17.464 -0.2156  0.4940  0.2906
 1510UDC     C516604   3.661   2.905  17.383 -0.4106 -0.4172 -0.3206
 1510UDC     C616605   3.717   2.873  17.243 -0.4954 -0.6975  0.0398
 1510UDC     C716606   3.722   2.987  17.142 -0.6706  0.6007  0.7113
 1510UDC     C816607   3.803   2.940  17.021 -0.0631 -0.2465 -0.0946
 1510UDC     C916608   3.718   2.881  16.905 -0.3401  0.3359  0.1212
 1510UDC    C1016609   3.794   2.862  16.774 -0.0392 -0.8810  0.5049
 1510UDC    C1116610   3.715   2.779  16.675  0.8254 -0.1967 -0.9065
 1511UDC     C116611  19.024   1.689   8.229  0.4814 -0.0666  0.2588
 1511UDC     C216612  19.170   1.729   8.264  0.0675  0.4325 -0.8967
 1511UDC     C316613  19.182   1.877   8.301 -0.7004  0.4651  0.4420
 1511UDC     C416614  19.321   1.912   8.358  0.2529  0.3932  1.1626
 1511UDC     C516615  19.360   2.061   8.362  1.6334  0.4899 -0.1471
 1511UDC     C616616  19.510   2.054   8.382 -1.1711 -1.1806 -0.2678
 1511UDC     C716617  19.571   1.929   8.317  0.1659 -0.4235  1.1494
 1511UDC     C816618  19.717   1.911   8.354 -0.1911 -0.8619  0.4487
 1511UDC     C916619  19.771   1.767   8.341 -0.5018  0.1812 -0.3401
 1511UDC    C1016620  19.703   1.669   8.448 -0.2308  0.4797 -0.7217
 1511UDC    C1116621  19.722   1.527   8.396  0.6000  0.7519  0.5677
 1512UDC     C116622   1.594  18.694  10.456  0.3262 -0.5344 -0.6627
 1512UDC     C216623   1.734  18.632  10.472  1.2095  0.4252  0.7869
 1512UDC     C316624   1.752  18.560  10.606  0.6836 -0.3724 -0.6079
 1512UDC     C416625   1.879  18.471  10.606  0.1361 -0.4197  0.0546
 1512UDC     C516626   1.928  18.413  10.749  1.3806  0.4890  0.2079
 1512UDC     C616627   1.817  18.317  10.798  0.9877 -0.1636 -0.0587
 1512UDC     C716628   1.770  18.230  10.672 -0.5756 -0.3427 -0.7978
 1512UDC     C816629   1.763  18.081  10.717  0.5489  0.3344  0.4524
 1512UDC     C916630   1.788  17.990  10.596  0.4911  0.1142 -0.0168
 1512UDC    C1016631   1.801  17.839  10.620  0.6858 -0.0960 -0.8119
 1512UDC    C1116632   1.670  17.797  10.696  0.0489  0.1416 -0.9602
 1513UDC     C116633  14.345  15.901  15.545 -0.2070  0.9637 -0.2889
 1513UDC     C216634  14.341  15.978  15.415 -0.2710 -0.3520 -0.3474
 1513UDC     C316635  14.216  16.046  15.376  0.0357 -0.4300  1.2978
 1513UDC     C416636  14.103  15.950  15.336  0.0454 -0.2559  0.7149
 1513UDC     C516637  14.008  15.950  15.453 -0.7837  0.0751  0.2002
 1513UDC     C616638  13.911  16.067  15.458 -0.4717  0.6456 -0.3539
 1513UDC     C716639  13.796  16.070  15.555  1.0987  1.2548 -1.0791
 1513UDC     C816640  13.729  16.193  15.607 -0.5410 -0.1444 -0.3927
 1513UDC     C916641  13.752  16.253  15.743  1.3023 -0.4040  0.1755
 1513UDC    C1016642  13.900  16.271  15.780 -0.3342 -0.7898  0.1296
 1513UDC    C1116643  13.933  16.296  15.933  0.1482 -0.6935  1.2060
 1514UDC     C116644   1.074   9.421  17.359 -0.1380 -0.6479 -0.2250
 1514UDC     C216645   1.084   9.385  17.510  0.3585  0.1854  0.4450
 1514UDC     C316646   1.200   9.280  17.534  0.8330 -1.3466  0.3304
 1514UDC     C416647   1.205   9.225  17.675  0.8401  0.2518 -0.1046
 1514UDC     C516648   1.231   9.072  17.692 -0.4763 -0.0946 -0.1829
 1514UDC     C616649   1.208   9.041  17.839 -0.6697  0.3926 -0.6554
 1514UDC     C716650   1.305   9.094  17.955  0.2027  0.0563  0.4833
 1514UDC     C816651   1.451   9.035  17.950  0.7505  0.1981 -1.0987
 1514UDC     C916652   1.523   9.057  18.087  0.7227  0.6437 -0.2454
 1514UDC    C1016653   1.667   8.995  18.101 -0.0358 -0.0691 -0.3555
 1514UDC    C1116654   1.746   9.057  18.223 -0.7048 -0.0094 -0.7411
 1515UDC     C116655   4.406  14.750   7.907 -0.0195  0.0007 -0.1332
 1515UDC     C216656   4.541  14.824   7.919 -0.2727 -0.1448  0.5279
 1515UDC     C316657   4.667  14.748   7.960  0.3282 -0.0582 -0.2284
 1515UDC     C416658   4.757  14.677   7.864  0.2190 -0.1238  0.3514
 1515UDC     C516659   4.814  14.748   7.729 -0.3601  0.4429 -1.1688
 1515UDC     C616660   4.958  14.699   7.694 -0.4695 -0.2676  0.4246
 1515UDC     C716661   5.001  14.706   7.548 -1.1191 -0.5288 -0.7073
 1515UDC     C816662   5.004  14.861   7.508  0.2913  0.9861 -0.8122
 1515UDC     C916663   5.123  14.946   7.562  0.9297 -0.2375 -0.1942
 1515UDC    C1016664   5.139  15.094   7.506 -0.6593  0.7398 -0.1152
 1515UDC    C1116665   5.006  15.162   7.465  0.4432  0.0760 -0.3949
 1516UDC     C116666  17.414   5.881   5.236 -0.5039  0.5473  0.5624
 1516UDC     C216667  17.385   5.931   5.378 -0.8488 -0.0796  0.0030
 1516UDC     C316668  17.429   6.080   5.394 -0.2822  0.5303 -0.8101
 1516UDC     C416669  17.399   6.136   5.529  0.5272  0.4583 -0.4020
 1516UDC     C516670  17.506   6.088   5.629  0.2377  0.3733 -0.4371
 1516UDC     C616671  17.568   6.209   5.705 -0.0456 -0.4320 -0.5114
 1516UDC     C716672  17.644   6.164   5.837  0.5764  0.0969  0.1853
 1516UDC     C816673  17.556   6.161   5.970  0.3003 -0.4679  0.4869
 1516UDC     C916674  17.525   6.020   6.016 -0.0310  1.2751  1.0334
 1516UDC    C1016675  17.660   5.962   6.061  0.8117  1.1981  0.6831
 1516UDC    C1116676  17.631   5.831   6.117 -0.5469 -0.1968  0.7242
 1517UDC     C116677  18.617   3.140   9.889 -0.0217 -0.2721  0.5273
 1517UDC     C216678  18.718   3.183   9.993 -1.1290 -0.8270 -0.6391
 1517UDC     C316679  18.859   3.195   9.938  0.2885 -0.6803 -0.5885
 1517UDC     C416680  18.905   3.076   9.855  0.0817  0.4005 -0.3058
 1517UDC     C516681  18.936   2.962   9.948 -0.1995  0.2635  0.0612
 1517UDC     C616682  19.061   2.997  10.040 -0.8510 -0.2364 -1.0185
 1517UDC     C716683  19.083   2.897  10.161  0.3330 -0.6287  0.5002
 1517UDC     C816684  19.235   2.883  10.202  0.2822 -0.3837 -0.7294
 1517UDC     C916685  19.244   2.809  10.337 -0.3595 -0.4876  0.4565
 1517UDC    C1016686  19.393   2.775  10.364 -0.1541 -0.1594 -0.3008
 1517UDC    C1116687  19.425   2.681  10.469 -0.5325 -0.1135  0.0831
 1518UDC     C116688  15.477  11.682   7.402  1.4101 -0.4228 -0.8682
 1518UDC     C216689  15.574  11.751   7.312 -0.8904  1.2788  0.2812
 1518UDC     C316690  15.516  11.887   7.281  0.2210  0.1329  0.1179
 1518UDC     C416691  15.590  11.956   7.165  0.5389 -0.3589  0.4468
 1518UDC     C516692  15.569  12.104   7.128 -0.0376 -0.4361 -0.4761
 1518UDC     C616693  15.574  12.136   6.988 -0.3902 -0.7095  0.6483
 1518UDC     C716694  15.552  12.278   6.932  0.0418  0.8493 -0.1028
 1518UDC     C816695  15.690  12.346   6.937  0.4250  0.6930 -0.9345
 1518UDC     C916696  15.780  12.383   7.055 -0.7789  0.5191  0.0136
 1518UDC    C1016697  15.890  12.483   7.015  0.4726  0.6036  0.1649
 1518UDC    C1116698  16.010  12.509   7.107  1.4732  0.2320 -0.8505
 1519UDC     C116699  17.045  12.830   6.679  0.8084  1.2738  0.1114
 1519UDC     C216700  17.199  12.828   6.680 -0.8470 -1.5514 -1.5622
 1519UDC     C316701  17.249  12.947   6.766 -0.5351  0.3367 -0.2492
 1519UDC     C416702  17.391  12.938   6.828 -0.8202 -0.2177  0.5518
 1519UDC     C516703  17.425  12.816   6.909  0.4986  0.2108 -0.8670
 1519UDC     C616704  17.569  12.808   6.957  0.2201  0.1392 -0.6736
 1519UDC     C716705  17.670  12.865   6.845  1.2351 -0.5880 -0.7175
 1519UDC     C816706  17.816  12.841   6.883 -0.5307 -0.2889  0.9953
 1519UDC     C916707  17.858  12.711   6.822 -0.1251 -0.6150  0.2841
 1519UDC    C1016708  17.974  12.610   6.858  1.0754 -0.2392 -0.0151
 1519UDC    C1116709  18.097  12.684   6.906  0.3688 -1.1427 -0.1103
 1520UDC     C116710   4.249   1.705  19.184  0.4626  0.0406  1.0104
 1520UDC     C216711   4.283   1.564  19.141 -0.8084  0.1651 -0.2182
 1520UDC     C316712   4.427   1.517  19.123  0.5550 -0.4247 -0.5549
 1520UDC     C416713   4.445   1.365  19.123  0.2869  0.3233 -0.2640
 1520UDC     C516714   4.348   1.281  19.040  0.9399 -0.4152 -0.0177
 1520UDC     C616715   4.375   1.293  18.892 -0.0614 -0.6934  0.5255
 1520UDC     C716716   4.318   1.169  18.832 -0.3122  0.5002 -0.3548
 1520UDC     C816717   4.344   1.139  18.680 -0.8448  0.2123 -1.2302
 1520UDC     C916718   4.220   1.085  18.601 -1.2761 -0.0753  1.4362
 1520UDC    C1016719   4.244   1.041  18.452  0.1152  1.2484  1.2177
 1520UDC    C1116720   4.125   0.958  18.390 -0.0942 -0.4737  0.0220
 1521UDC     C116721  14.231  14.247  13.139  0.0085  0.5618  0.7788
 1521UDC     C216722  14.248  14.209  12.983  0.2262 -0.6929 -0.0146
 1521UDC     C316723  14.208  14.068  12.948 -0.3759  0.7881  0.9053
 1521UDC     C416724  14.153  14.032  12.804  1.4303 -0.2343 -1.0355
 1521UDC     C516725  14.245  13.998  12.693 -0.2427 -0.0743  0.8599
 1521UDC     C616726  14.196  14.072  12.568 -0.2172  1.1911  0.0369
 1521UDC     C716727  14.136  13.958  12.479 -0.6676 -0.6225 -0.9198
 1521UDC     C816728  13.990  13.918  12.515 -0.6478 -0.2558  0.1820
 1521UDC     C916729  13.961  13.775  12.479 -0.8593 -0.0506  0.8767
 1521UDC    C1016730  13.824  13.720  12.512  0.4914 -0.4054  0.9220
 1521UDC    C1116731  13.833  13.566  12.497  0.5814 -0.5433  0.6351
 1522UDC     C116732   2.802   0.593   1.989  0.4716  0.1214 -0.0961
 1522UDC     C216733   2.948   0.570   2.034  0.5297  0.0380  0.3942
 1522UDC     C316734   2.975   0.417   2.055 -0.0899 -0.4486  0.4860
 1522UDC     C416735   3.110   0.387   2.118 -0.3511 -0.0969 -0.0168
 1522UDC     C516736   3.146   0.438   2.258  0.1484 -0.1760 -0.9897
 1522UDC     C616737   3.299   0.456   2.290 -0.2107  0.0671  0.3420
 1522UDC     C716738   3.331   0.466   2.447 -0.4729 -1.5183  1.4506
 1522UDC     C816739   3.475   0.487   2.498  0.2889  0.1694 -0.9731
 1522UDC     C916740   3.487   0.583   2.617 -0.0140 -0.2383 -0.3844
 1522UDC    C1016741   3.626   0.639   2.636 -0.5479 -0.1580 -0.4268
 1522UDC    C1116742   3.708   0.524   2.698 -0.4461  0.1280  0.4552
 1523UDC     C116743  18.496  13.718   5.437  0.5551  0.7158 -0.2121
 1523UDC     C216744  18.361  13.633   5.419 -1.1975 -0.3230  0.2442
 1523UDC     C316745  18.251  13.726   5.479  0.0460 -0.0006 -0.6898
 1523UDC     C416746  18.227  13.664   5.617 -0.3460  0.4887 -0.4242
 1523UDC     C516747  18.131  13.742   5.709 -0.9691  0.6962 -0.1663
 1523UDC     C616748  18.119  13.687   5.858  0.2350 -0.0917  0.4854
 1523UDC     C716749  18.032  13.781   5.945 -1.0948  0.9607  0.5426
 1523UDC     C816750  18.061  13.766   6.091 -0.4479 -0.5009  0.2104
 1523UDC     C916751  18.021  13.900   6.162  0.6670  0.5350  0.7821
 1523UDC    C1016752  18.037  13.917   6.309 -0.5732  0.0309 -0.3097
 1523UDC    C1116753  17.905  13.908   6.388 -0.1596 -0.0153 -1.1631
 1524UDC     C116754   9.805  15.553  15.635 -0.3062 -0.5502  0.4428
 1524UDC     C216755   9.673  15.576  15.562  0.0059 -0.6639  0.7220
 1524UDC     C316756   9.587  15.684  15.622  1.0915  0.1686 -0.8510
 1524UDC     C416757   9.561  15.673  15.780 -0.4465  0.2361 -0.0684
 1524UDC     C516758   9.481  15.553  15.827 -0.7038 -0.8435  1.3513
 1524UDC     C616759   9.416  15.570  15.964  0.6669 -0.5417 -0.4816
 1524UDC     C716760   9.504  15.562  16.084 -0.6480 -0.8861  0.3341
 1524UDC     C816761   9.450  15.633  16.206 -0.6799 -0.8183 -0.2921
 1524UDC     C916762   9.412  15.778  16.158 -0.1131  0.1971 -0.7565
 1524UDC    C1016763   9.382  15.867  16.291  1.0369 -0.2811 -0.1153
 1524UDC    C1116764   9.283  15.975  16.264 -0.0849  0.3157 -0.0927
 1525UDC     C116765  19.043   3.617  14.273  0.8028  0.2179  0.7589
 1525UDC     C216766  18.954   3.696  14.170  0.5178 -0.5132 -0.7532
 1525UDC     C316767  19.025   3.815  14.106 -0.5337  0.0005 -0.0335
 1525UDC     C416768  19.001   3.842  13.958  0.5934 -1.4200  0.5698
 1525UDC     C516769  18.848   3.868  13.939  0.4743  0.2162  0.3751
 1525UDC     C616770  18.819   4.013  13.905 -0.3011 -1.3772  0.5076
 1525UDC     C716771  18.884   4.122  14.001  0.2218 -1.0952 -0.7888
 1525UDC     C816772  18.848   4.271  13.956  0.2636  0.2172 -0.2608
 1525UDC     C916773  18.945   4.364  14.045  0.4550  0.2651  0.2585
 1525UDC    C1016774  19.041   4.437  13.947 -0.4491 -0.6140 -0.4173
 1525UDC    C1116775  18.995   4.586  13.936  1.0243 -0.1878  0.2681
 1526UDC     C116776  16.431   0.837  15.166  0.4437 -0.0751  0.1605
 1526UDC     C216777  16.463   0.929  15.042  0.4379 -0.5083 -0.8086
 1526UDC     C316778  16.616   0.931  14.998 -0.2716 -0.0996 -0.8303
 1526UDC     C416779  16.642   0.972  14.850  0.2367  0.2007 -0.4207
 1526UDC     C516780  16.790   0.967  14.800 -0.2679  0.4622  0.1702
 1526UDC     C616781  16.868   1.035  14.914 -0.6685 -1.0933  0.0554
 1526UDC     C716782  16.835   1.176  14.965 -0.7014 -0.2399  0.1250
 1526UDC     C816783  16.899   1.202  15.103  0.0990  0.5450  0.0668
 1526UDC     C916784  16.861   1.327  15.180  0.0055  0.9935 -1.5575
 1526UDC    C1016785  16.956   1.353  15.298 -0.8987 -0.0140 -0.2376
 1526UDC    C1116786  17.099   1.429  15.275  0.5250 -0.0274 -1.3046
 1527UDC     C116787  12.248  18.978   1.364  0.6550 -0.2829 -1.1101
 1527UDC     C216788  12.388  18.921   1.398  0.3147  0.4379 -0.0348
 1527UDC     C316789  12.397  18.773   1.427  0.2334 -0.6864 -0.3183
 1527UDC     C416790  12.536  18.720   1.392 -0.8610 -1.1311  0.5470
 1527UDC     C516791  12.568  18.728   1.243 -0.5895 -0.0073  0.2230
 1527UDC     C616792  12.497  18.618   1.159 -0.6674  0.3336  0.3522
 1527UDC     C716793  12.509  18.471   1.202  0.2495 -0.0568  0.0722
 1527UDC     C816794  12.648  18.420   1.166  0.7891 -0.2608 -0.9194
 1527UDC     C916795  12.676  18.290   1.236 -0.1415 -0.2374  1.0107
 1527UDC    C1016796  12.814  18.228   1.222  0.3298 -0.4476 -0.2736
 1527UDC    C1116797  12.929  18.328   1.239  0.9600 -0.6284  0.7105
 1528UDC     C116798  11.980   6.183  17.976  0.8075  0.3512  0.0290
 1528UDC     C216799  11.849   6.168  17.895 -0.3079 -0.4037  0.4344
 1528UDC     C316800  11.799   6.311  17.851  0.0398  0.1445 -0.0575
 1528UDC     C416801  11.746   6.398  17.964 -0.7271 -1.4593  0.7912
 1528UDC     C516802  11.612   6.449  17.921 -0.5146  0.6332 -0.1117
 1528UDC     C616803  11.543   6.537  18.032 -0.2575  1.3084  0.7242
 1528UDC     C716804  11.463   6.661  17.988  0.2925  0.4030  0.3129
 1528UDC     C816805  11.321   6.646  17.936 -0.4248  0.0959 -0.5742
 1528UDC     C916806  11.309   6.588  17.795 -0.3921  0.0534  0.6161
 1528UDC    C1016807  11.154   6.591  17.748 -1.0157  0.1370 -0.1509
 1528UDC    C1116808  11.056   6.510  17.837  0.1570 -0.1989  0.9458
 1529UDC     C116809   4.326  10.301   5.676  1.0272 -0.6822  0.3630
 1529UDC     C216810   4.206  10.208   5.697 -0.0078  1.2134  0.7164
 1529UDC     C316811   4.132  10.164   5.570  0.1379  1.5862 -0.3199
 1529UDC     C416812   4.180  10.034   5.494 -0.9324 -0.2778  0.4405
 1529UDC     C516813   4.076   9.988   5.393  0.4986  0.2044 -0.1591
 1529UDC     C616814   4.100   9.879   5.288  0.3372 -0.2681 -1.2305
 1529UDC     C716815   4.223   9.899   5.198  0.1639  0.2004 -1.0312
 1529UDC     C816816   4.236   9.782   5.093  0.7491 -0.0030  0.6415
 1529UDC     C916817   4.299   9.821   4.959 -0.2093 -0.3129  0.3943
 1529UDC    C1016818   4.317   9.702   4.864 -0.0142 -0.6086 -0.2279
 1529UDC    C1116819   4.445   9.715   4.781 -0.5122  0.6378  0.5405
 1530UDC     C116820   8.836  13.070   8.942 -0.2874 -0.0711 -0.7159
 1530UDC     C216821   8.817  13.117   8.801 -0.7306 -0.6056  0.1692
 1530UDC     C316822   8.847  13.008   8.681 -0.0054  0.4018 -0.9276
 1530UDC     C416823   8.996  13.029   8.624  0.3983  0.9010  0.0470
 1530UDC     C516824   9.015  13.148   8.537 -0.5031 -0.2581 -0.8517
 1530UDC     C616825   9.007  13.090   8.395  0.7727 -1.0863  0.6857
 1530UDC     C716826   9.108  12.977   8.386 -0.6610 -0.4961 -0.2308
 1530UDC     C816827   9.217  12.995   8.276 -0.0073  0.2507  0.3308
 1530UDC     C916828   9.302  12.868   8.270  0.1606 -0.2429 -0.7455
 1530UDC    C1016829   9.420  12.866   8.176 -0.1668  0.9585 -0.3154
 1530UDC    C1116830   9.472  12.721   8.169 -0.7090  0.2151 -0.5391
 1531UDC     C116831   8.100  16.296   1.744 -0.0664  0.8003 -1.0478
 1531UDC     C216832   8.137  16.213   1.871 -0.5561 -0.8184  0.3164
 1531UDC     C316833   8.006  16.155   1.928 -0.5089 -0.1864  1.1151
 1531UDC     C416834   8.013  16.074   2.059 -0.3276  0.6045  0.2142
 1531UDC     C516835   8.084  15.935   2.052  0.0752 -0.3042 -0.0670
 1531UDC     C616836   8.225  15.915   1.988  0.3689 -0.1872 -0.4017
 1531UDC     C716837   8.261  15.770   1.999  0.7280 -0.2073 -0.8683
 1531UDC     C816838   8.289  15.737   2.146  0.2309  0.0086  0.2965
 1531UDC     C916839   8.298  15.592   2.184  0.2466  0.3894  1.0231
 1531UDC    C1016840   8.372  15.514   2.074  0.6627  0.6400  0.3198
 1531UDC    C1116841   8.519  15.522   2.093 -0.3245 -0.9358 -1.0279
 1532UDC     C116842  11.980   8.501   2.362  1.0095 -0.4916  0.1076
 1532UDC     C216843  12.008   8.645   2.397 -0.0301 -0.3950  0.8636
 1532UDC     C316844  12.079   8.658   2.529  0.0368  0.1402  0.7601
 1532UDC     C416845  12.135   8.802   2.569  0.1860  0.6543  0.0402
 1532UDC     C516846  12.038   8.914   2.614  1.1694  0.7226 -0.4964
 1532UDC     C616847  11.983   8.894   2.757  1.0183  1.2827  1.2735
 1532UDC     C716848  12.094   8.887   2.860 -0.7053 -0.0278  0.5143
 1532UDC     C816849  12.063   8.920   3.003  0.3451  0.5932 -0.1859
 1532UDC     C916850  12.162   8.883   3.106 -0.7215 -1.1558 -0.9368
 1532UDC    C1016851  12.103   8.891   3.251  0.1460 -0.1858 -0.3711
 1532UDC    C1116852  12.028   9.025   3.278  0.9065  0.3578 -0.5460
 1533UDC     C116853   4.323  19.028  10.012  0.4391 -0.1122 -0.4365
 1533UDC     C216854   4.404  18.907  10.069 -1.1994  1.0080 -1.2241
 1533UDC     C316855   4.325  18.778  10.101  0.3785 -0.1508  0.0797
 1533UDC     C416856   4.378  18.665  10.193  0.7608  1.0151 -0.8403
 1533UDC     C516857   4.278  18.611  10.292  0.6272  0.1330  0.0140
 1533UDC     C616858   4.222  18.716  10.394 -0.5003 -0.9732 -0.4889
 1533UDC     C716859   4.154  18.644  10.510 -0.4531 -0.8663 -1.2287
 1533UDC     C816860   4.003  18.630  10.486 -0.0109  0.2979 -1.5422
 1533UDC     C916861   3.923  18.569  10.607  0.5725 -0.3779 -0.0249
 1533UDC    C1016862   3.766  18.567  10.597  0.6132  0.9128  0.3740
 1533UDC    C1116863   3.702  18.685  10.667  0.6714  0.0947  1.1999
 1534UDC     C116864  15.990  18.881   3.394 -0.2216  0.5765 -0.6303
 1534UDC     C216865  16.076  18.764   3.355 -0.0574 -0.5898  0.6453
 1534UDC     C316866  16.002  18.681   3.258 -0.4896 -0.5931  0.5005
 1534UDC     C416867  15.984  18.724   3.113  0.3909 -1.2394 -0.2694
 1534UDC     C516868  15.970  18.602   3.015 -0.0109 -0.0983  0.9240
 1534UDC     C616869  15.834  18.574   2.942  0.0066 -0.5372 -0.4494
 1534UDC     C716870  15.855  18.522   2.802 -0.1452 -0.2959  1.5831
 1534UDC     C816871  15.735  18.476   2.709  0.2718  0.3908 -0.7325
 1534UDC     C916872  15.656  18.363   2.772  0.0963  0.0488 -0.0857
 1534UDC    C1016873  15.520  18.332   2.709  0.3046  0.7026 -0.1598
 1534UDC    C1116874  15.550  18.275   2.568  0.1623  0.9192 -0.6474
 1535UDC     C116875   7.593  12.414  15.592  0.1916  0.3459  0.1487
 1535UDC     C216876   7.720  12.485  15.627 -0.4200 -0.4083 -0.2428
 1535UDC     C316877   7.835  12.377  15.659 -0.3099  0.0811 -0.0138
 1535UDC     C416878   7.839  12.324  15.804 -1.1051 -0.5548 -0.6003
 1535UDC     C516879   7.954  12.218  15.819 -0.6339  0.5439  0.3787
 1535UDC     C616880   7.955  12.138  15.695 -0.1422 -0.4440  0.4895
 1535UDC     C716881   7.988  11.991  15.741  0.2016 -0.5391 -0.7495
 1535UDC     C816882   7.972  11.892  15.623  0.5296 -0.6838 -0.0085
 1535UDC     C916883   8.057  11.925  15.498  0.0845 -1.1143 -1.5219
 1535UDC    C1016884   8.068  11.802  15.406 -1.1466 -0.1816  1.0627
 1535UDC    C1116885   8.108  11.685  15.496 -0.0156 -0.0240 -0.5572
 1536UDC     C116886  13.166   6.362   2.187 -0.3074 -0.0781 -0.0249
 1536UDC     C216887  13.016   6.386   2.205 -0.2903  0.2889 -0.2614
 1536UDC     C316888  12.953   6.483   2.306  0.0144  0.2584  0.3411
 1536UDC     C416889  13.011   6.632   2.307 -0.4165  0.0696  0.4420
 1536UDC     C516890  13.111   6.647   2.422 -0.1540 -0.6780 -0.0166
 1536UDC     C616891  13.052   6.615   2.566  0.4630  0.2526 -0.3326
 1536UDC     C716892  13.155   6.632   2.682  0.4781 -0.0437 -0.4011
 1536UDC     C816893  13.276   6.543   2.688  0.2362 -1.1759  0.5828
 1536UDC     C916894  13.349   6.572   2.825 -0.4114  0.8051 -0.0077
 1536UDC    C1016895  13.383   6.447   2.911  0.1969 -1.3354  0.3569
 1536UDC    C1116896  13.500   6.354   2.873  0.9998 -0.5027 -0.0818
 1537UDC     C116897  15.575   6.136  12.030 -0.4205  0.8733 -0.6624
 1537UDC     C216898  15.498   6.135  12.165  1.2886 -0.0448  0.2148
 1537UDC     C316899  15.359   6.196  12.123 -0.5780  0.9484 -0.1869
 1537UDC     C416900  15.247   6.096  12.077 -0.3834 -0.4244 -0.8510
 1537UDC     C516901  15.209   6.007  12.197  0.3106  0.4242 -0.3453
 1537UDC     C616902  15.062   5.966  12.191 -0.5058 -1.2758 -0.5485
 1537UDC     C716903  15.005   5.916  12.059 -0.5979  0.0120  0.4253
 1537UDC     C816904  14.852   5.903  12.081 -0.5378  0.6318 -0.3111
 1537UDC     C916905  14.773   5.924  11.953 -0.1558  0.4018 -0.7474
 1537UDC    C1016906  14.814   5.848  11.829 -0.3209 -0.3982  0.9363
 1537UDC    C1116907  14.686   5.810  11.762  0.3176 -0.6018  0.5033
 1538UDC     C116908  10.054  10.677  15.621  0.8973  0.1487  0.7496
 1538UDC     C216909  10.155  10.642  15.736 -0.0165 -0.1006  0.2633
 1538UDC     C316910  10.131  10.713  15.873 -0.5673  0.0125  0.4689
 1538UDC     C416911  10.111  10.866  15.873 -0.2986 -0.9297  0.5592
 1538UDC     C516912  10.222  10.963  15.910  1.1444  0.1402 -0.6119
 1538UDC     C616913  10.208  11.103  15.867 -0.4819 -0.6523 -0.0149
 1538UDC     C716914  10.344  11.181  15.886 -0.1937 -0.1003  0.6056
 1538UDC     C816915  10.447  11.148  15.781  0.7238  1.4296  1.4142
 1538UDC     C916916  10.498  11.006  15.750 -0.1480  0.0285  0.2792
 1538UDC    C1016917  10.610  11.019  15.638 -0.1614 -0.2632 -0.3869
 1538UDC    C1116918  10.613  10.919  15.515 -0.7448 -0.3570  0.4594
 1539UDC     C116919  19.996  13.472   2.212  0.1188 -0.3976 -0.9630
 1539UDC     C216920  19.952  13.525   2.347  0.3922  0.1991 -0.1438
 1539UDC     C316921  20.056  13.520   2.461 -0.3857 -0.5119  1.0944
 1539UDC     C416922  20.023  13.431   2.584  0.2835 -0.2322  0.9297
 1539UDC     C516923  20.080  13.290   2.575 -0.3953  0.4600 -0.0525
 1539UDC     C616924  20.026  13.195   2.684 -0.2501  0.4403 -0.3116
 1539UDC     C716925  19.877  13.157   2.651 -0.4257 -0.6004  0.6539
 1539UDC     C816926  19.785  13.100   2.761  1.0562 -0.0671  1.4001
 1539UDC     C916927  19.632  13.101   2.712 -1.1966  0.3679 -0.7975
 1539UDC    C1016928  19.558  13.204   2.795  0.0230 -0.0848 -0.6694
 1539UDC    C1116929  19.578  13.184   2.946 -0.3293 -0.2061  0.4377
 1540UDC     C116930  18.063   5.857  15.860  0.6805 -0.5152  0.0244
 1540UDC     C216931  18.014   5.908  15.995 -0.6523  1.3108 -0.0058
 1540UDC     C316932  17.980   6.050  15.966  1.6465  1.0643 -0.0760
 1540UDC     C416933  17.957   6.137  16.092 -0.1540 -0.8709  0.6182
 1540UDC     C516934  17.861   6.068  16.191 -0.1904 -1.5513 -0.2529
 1540UDC     C616935  17.852   6.159  16.318 -0.4453 -0.2091  0.4621
 1540UDC     C716936  17.815   6.304  16.290 -0.4117 -0.0979 -0.6647
 1540UDC     C816937  17.757   6.390  16.404 -0.2708  0.4491 -0.4531
 1540UDC     C916938  17.605   6.355  16.415 -0.7172  0.1373 -1.9678
 1540UDC    C1016939  17.541   6.396  16.548  0.0405  0.5141 -0.0284
 1540UDC    C1116940  17.394   6.352  16.578 -0.9892 -0.4823  1.0634
 1541UDC     C116941  16.164  11.244   9.031  0.5014  0.7396  0.7930
 1541UDC     C216942  16.281  11.298   8.958 -0.4163 -0.6063  0.0660
 1541UDC     C316943  16.389  11.389   9.031  0.5518  0.7970  0.0639
 1541UDC     C416944  16.489  11.451   8.934 -0.4326 -1.2276 -0.4179
 1541UDC     C516945  16.569  11.557   9.010  0.5557 -1.2763  0.0378
 1541UDC     C616946  16.689  11.609   8.923  0.7015 -1.6473 -0.4699
 1541UDC     C716947  16.787  11.678   9.019 -0.4025 -0.0434  0.4517
 1541UDC     C816948  16.907  11.735   8.937  0.3437  0.2700 -0.0204
 1541UDC     C916949  16.850  11.793   8.805  0.5719 -0.1626 -0.5244
 1541UDC    C1016950  16.928  11.922   8.750  1.1275  0.1784 -0.3201
 1541UDC    C1116951  16.833  12.020   8.690 -0.6414 -0.2901  0.0976
 1542UDC     C116952  19.933   4.531   2.780 -0.5886 -0.0459 -0.0398
 1542UDC     C216953  19.976   4.676   2.748 -0.5375 -0.0706  0.4704
 1542UDC     C316954  19.864   4.782   2.758 -0.6498  0.2984 -0.0595
 1542UDC     C416955  19.770   4.775   2.635  0.2750 -0.3320 -0.4750
 1542UDC     C516956  19.677   4.897   2.625  0.2534  0.1142 -0.4030
 1542UDC     C616957  19.609   4.943   2.756 -0.1268 -0.5029 -0.4127
 1542UDC     C716958  19.475   4.878   2.791 -0.3112  0.5018 -0.4802
 1542UDC     C816959  19.467   4.726   2.835  1.3078 -0.5913  0.8339
 1542UDC     C916960  19.322   4.692   2.891 -0.3944  0.0916 -0.0756
 1542UDC    C1016961  19.295   4.538   2.885 -0.1236 -1.0415  0.4107
 1542UDC    C1116962  19.317   4.473   2.747  0.4635 -0.0402  0.8917
 1543UDC     C116963   0.708   8.132   1.629  0.6158 -0.0477 -0.2425
 1543UDC     C216964   0.862   8.156   1.628 -1.1444  1.1664  0.7395
 1543UDC     C316965   0.935   8.050   1.705 -0.6985  0.4028 -1.3026
 1543UDC     C416966   1.050   8.124   1.778 -0.3461 -0.3893  0.0490
 1543UDC     C516967   1.152   8.193   1.687 -0.1381 -0.6405  0.0950
 1543UDC     C616968   1.284   8.247   1.746 -0.0587 -0.3930  0.2552
 1543UDC     C716969   1.312   8.390   1.692 -0.5359  1.4218 -0.6278
 1543UDC     C816970   1.369   8.409   1.552 -0.1986  0.2458  0.4155
 1543UDC     C916971   1.389   8.553   1.495  1.0161 -0.1920  0.5405
 1543UDC    C1016972   1.421   8.549   1.341  0.7470  0.9370  0.3417
 1543UDC    C1116973   1.329   8.439   1.280  1.0451 -0.3528 -0.2748
 1544UDC     C116974  18.994  17.187  12.818  0.6395 -0.1315 -0.0236
 1544UDC     C216975  18.842  17.173  12.817 -0.2082 -0.7162  0.1463
 1544UDC     C316976  18.761  17.299  12.862 -0.2455 -0.1086  0.1077
 1544UDC     C416977  18.665  17.359  12.762  0.3240  0.7818 -0.0789
 1544UDC     C516978  18.598  17.488  12.806 -0.0137 -0.0082  0.1947
 1544UDC     C616979  18.500  17.454  12.921 -0.0267 -0.0413 -0.1004
 1544UDC     C716980  18.394  17.367  12.858  0.2607  0.2690 -0.7485
 1544UDC     C816981  18.358  17.256  12.963  0.0002 -0.8074  0.5134
 1544UDC     C916982  18.236  17.168  12.930 -0.3056  0.9399  0.9373
 1544UDC    C1016983  18.134  17.265  12.865  0.1271  0.0615  0.8466
 1544UDC    C1116984  18.001  17.208  12.806 -1.1206  0.9199 -1.1068
 1545UDC     C116985  13.180   9.347   0.831  0.3949 -0.5130 -0.6731
 1545UDC     C216986  13.038   9.396   0.784  0.0833 -0.0008 -1.5718
 1545UDC     C316987  12.984   9.302   0.676 -0.0545  0.2029  0.2325
 1545UDC     C416988  12.846   9.334   0.612  0.3895  0.6853 -0.3081
 1545UDC     C516989  12.820   9.448   0.512  0.0117 -0.6527  0.0433
 1545UDC     C616990  12.669   9.486   0.523 -1.1021 -0.0507 -0.4383
 1545UDC     C716991  12.617   9.580   0.425 -0.8769 -0.7141 -0.1458
 1545UDC     C816992  12.484   9.633   0.482 -0.6693 -0.3000  0.0690
 1545UDC     C916993  12.483   9.637   0.642 -0.0043  1.0738  0.4520
 1545UDC    C1016994  12.354   9.690   0.696 -0.1581  0.7343  0.0596
 1545UDC    C1116995  12.237   9.602   0.674 -0.3741  0.4141 -0.2243
 1546UDC     C116996  19.710   3.913   1.140  1.0053 -0.1719  0.0273
 1546UDC     C216997  19.572   3.901   1.073 -0.7904  0.8215 -0.3586
 1546UDC     C316998  19.465   3.840   1.149 -0.0259  0.5608 -0.3637
 1546UDC     C416999  19.319   3.886   1.122 -0.4081  1.2259  0.0117
 1546UDC     C517000  19.275   3.974   1.237 -0.4810 -1.2866 -0.8979
 1546UDC     C617001  19.128   4.027   1.210  0.6205  0.5045 -0.3745
 1546UDC     C717002  19.014   3.932   1.190  0.2985 -0.1897 -0.8182
 1546UDC     C817003  18.878   3.981   1.238  1.1114  1.0893 -0.0481
 1546UDC     C917004  18.780   3.899   1.161  0.4854 -0.7458 -1.5138
 1546UDC    C1017005  18.791   3.747   1.160  0.2603  0.4791  0.2084
 1546UDC    C1117006  18.707   3.670   1.050  0.6496 -0.8555 -0.1339
 1547UDC     C117007  12.759   6.266  18.613 -0.7959  0.4441  1.2365
 1547UDC     C217008  12.795   6.367  18.719  0.6859 -0.3138  0.1667
 1547UDC     C317009  12.862   6.306  18.847  0.0068  0.2638 -0.7358
 1547UDC     C417010  12.897   6.400  18.963 -0.5293 -1.2101 -0.3900
 1547UDC     C517011  13.009   6.497  18.929 -0.0891 -0.4028  0.2292
 1547UDC     C617012  13.111   6.402  18.866  0.4116 -0.2587  0.4617
 1547UDC     C717013  13.245   6.475  18.856  0.2912 -0.3541  0.4776
 1547UDC     C817014  13.375   6.383  18.852 -0.2599  0.7775 -1.0288
 1547UDC     C917015  13.368   6.273  18.746 -0.9261 -0.5553  1.1702
 1547UDC    C1017016  13.512   6.225  18.712  0.6810 -0.9332  0.1498
 1547UDC    C1117017  13.612   6.194  18.825  0.1239  0.9825 -0.2431
 1548UDC     C117018   9.970  13.554  11.460 -0.4470 -0.0944 -0.7989
 1548UDC     C217019   9.925  13.695  11.424  0.0171  0.4388 -0.3547
 1548UDC     C317020   9.784  13.721  11.369  0.0757  0.0096  0.9989
 1548UDC     C417021   9.732  13.851  11.427 -0.6006 -0.9614  0.4490
 1548UDC     C517022   9.580  13.879  11.442 -0.0191 -0.6004 -0.3463
 1548UDC     C617023   9.493  13.840  11.318  1.9169 -1.9536  0.1014
 1548UDC     C717024   9.506  13.936  11.195  0.9444 -0.4339 -0.3253
 1548UDC     C817025   9.396  13.919  11.095  0.3205  0.8341  0.4375
 1548UDC     C917026   9.412  14.016  10.973 -1.0861 -0.3542 -0.4403
 1548UDC    C1017027   9.526  14.119  10.981 -1.2099  0.3187  0.1795
 1548UDC    C1117028   9.582  14.165  10.841  0.7742  0.5974 -0.1293
 1549UDC     C117029   1.229   4.081  18.718 -0.3753  0.4869  0.0563
 1549UDC     C217030   1.246   4.024  18.576 -1.1502  0.8793 -0.3962
 1549UDC     C317031   1.378   3.959  18.536 -0.3196  0.5148  0.3426
 1549UDC     C417032   1.370   3.926  18.388  0.6979  0.2022  0.2147
 1549UDC     C517033   1.452   4.013  18.297  0.7734  0.3105 -0.0674
 1549UDC     C617034   1.389   4.132  18.215 -0.5777  0.5086  0.5647
 1549UDC     C717035   1.301   4.087  18.097 -1.9607 -0.1011  0.3011
 1549UDC     C817036   1.350   4.139  17.964 -0.4511 -1.6564  0.6074
 1549UDC     C917037   1.368   4.294  17.939  0.2931 -0.3889 -0.8702
 1549UDC    C1017038   1.497   4.367  17.985 -0.5902  0.0858  0.0505
 1549UDC    C1117039   1.495   4.523  17.949 -0.6193 -0.6799 -0.3852
 1550UDC     C117040   7.935   9.592   9.363 -0.1580  0.0330  1.0900
 1550UDC     C217041   7.825   9.613   9.261 -1.0183 -1.1449 -0.0782
 1550UDC     C317042   7.686   9.579   9.316 -0.3078 -0.0867  0.7654
 1550UDC     C417043   7.651   9.432   9.299  0.2709  0.1108  0.3986
 1550UDC     C517044   7.501   9.414   9.268 -0.0560 -0.1898  0.3521
 1550UDC     C617045   7.472   9.392   9.113 -0.5807  0.2003  0.3793
 1550UDC     C717046   7.341   9.462   9.054 -0.2420  0.3201 -0.3089
 1550UDC     C817047   7.332   9.610   9.102  0.5327  0.2523 -0.7959
 1550UDC     C917048   7.257   9.616   9.234  0.5587  0.0202  1.4158
 1550UDC    C1017049   7.188   9.751   9.272  0.0461 -0.1252 -0.0575
 1550UDC    C1117050   7.296   9.864   9.251 -0.5641 -0.8067  0.4492
 1551UDC     C117051  19.599  11.382   3.679 -0.2135 -0.4942  0.0952
 1551UDC     C217052  19.634  11.463   3.553  0.9294 -0.8717 -0.6213
 1551UDC     C317053  19.785  11.503   3.536  0.8021 -0.2587 -0.3289
 1551UDC     C417054  19.852  11.364   3.537  0.5602 -0.8613  0.2471
 1551UDC     C517055  19.999  11.358   3.506  0.3978 -0.3082 -1.1141
 1551UDC     C617056  20.036  11.385   3.354 -0.4474 -0.0573 -0.7473
 1551UDC     C717057  20.184  11.428   3.349  0.9771 -0.4332 -1.5674
 1551UDC     C817058  20.235  11.445   3.209  1.6403  0.2881  0.2334
 1551UDC     C917059  20.382  11.463   3.230 -0.8762 -0.2739  0.0980
 1551UDC    C1017060  20.462  11.492   3.105  0.7089 -0.9203  0.7030
 1551UDC    C1117061  20.587  11.579   3.136  0.7725  1.1253 -0.6347
 1552UDC     C117062   4.681  10.416  10.625 -1.1183  1.0544 -0.2716
 1552UDC     C217063   4.603  10.301  10.555  0.6559 -0.7100  0.7004
 1552UDC     C317064   4.452  10.299  10.522 -0.7350 -0.2364 -0.2870
 1552UDC     C417065   4.367  10.219  10.614  0.3498  1.2136  0.4408
 1552UDC     C517066   4.237  10.170  10.550 -0.1733  0.5399  1.8365
 1552UDC     C617067   4.251  10.052  10.464  0.4972  0.3745  0.3461
 1552UDC     C717068   4.255   9.923  10.536 -0.3330  0.6791  0.2345
 1552UDC     C817069   4.304   9.801  10.449  0.0738 -0.1047  0.3025
 1552UDC     C917070   4.441   9.813  10.374 -0.8472 -0.0188 -0.7198
 1552UDC    C1017071   4.483   9.688  10.304 -0.2537 -0.1532  0.3093
 1552UDC    C1117072   4.623   9.689  10.258 -0.5236 -0.3998 -0.7222
 1553UDC     C117073   0.527   4.371   3.415 -0.9181 -0.6792 -0.6933
 1553UDC     C217074   0.581   4.248   3.486  0.4786 -0.4571  1.0640
 1553UDC     C317075   0.557   4.262   3.633  0.1646  0.9290 -0.0876
 1553UDC     C417076   0.410   4.297   3.621 -0.3630 -0.5018 -0.7721
 1553UDC     C517077   0.324   4.186   3.699 -0.5249  0.6818  0.3223
 1553UDC     C617078   0.182   4.176   3.667  0.0526  0.4154 -0.1700
 1553UDC     C717079   0.127   4.123   3.535 -1.7761 -1.2197 -0.6074
 1553UDC     C817080   0.121   3.981   3.504 -0.2827  0.8269  0.1192
 1553UDC     C917081   0.037   3.883   3.582 -0.0799 -0.7871  0.4887
 1553UDC    C1017082  -0.011   3.756   3.519  0.8547  0.6570 -0.2927
 1553UDC    C1117083   0.090   3.647   3.467  0.3328 -0.6089  0.1044
 1554UDC     C117084  13.562  17.998  13.282  0.9903  0.3695 -0.0675
 1554UDC     C217085  13.463  18.115  13.283 -0.2168  0.5239  0.0753
 1554UDC     C317086  13.432  18.164  13.425 -0.1327  1.5284  0.1769
 1554UDC     C417087  13.381  18.310  13.413 -1.2178 -0.2785 -0.8140
 1554UDC     C517088  13.307  18.392  13.528  0.4547  0.0813 -0.6454
 1554UDC     C617089  13.203  18.318  13.615  0.3881 -0.0621 -0.1214
 1554UDC     C717090  13.242  18.336  13.759  0.0000 -0.9249  0.5729
 1554UDC     C817091  13.129  18.405  13.830 -1.0486 -0.9435  0.1551
 1554UDC     C917092  13.132  18.561  13.824 -0.7951 -0.1517 -0.0390
 1554UDC    C1017093  13.027  18.618  13.914  0.7393 -0.0071  1.1174
 1554UDC    C1117094  13.004  18.528  14.034  0.3576  0.4205 -0.7767
 1555UDC     C117095   9.371  19.864   2.419  0.6139  0.5896 -0.3708
 1555UDC     C217096   9.377  20.018   2.430 -0.1566  0.1069  0.5612
 1555UDC     C317097   9.502  20.078   2.492 -0.4069 -0.2057 -0.2187
 1555UDC     C417098   9.508  20.234   2.482  0.0410  0.5297 -0.2603
 1555UDC     C517099   9.523  20.284   2.334  0.4722  0.6954 -0.7221
 1555UDC     C617100   9.473  20.430   2.331 -0.2734 -0.0603  0.3931
 1555UDC     C717101   9.487  20.470   2.476  0.3937 -1.4824 -0.9444
 1555UDC     C817102   9.434  20.614   2.506 -1.4704 -0.4517  0.6668
 1555UDC     C917103   9.469  20.639   2.654  0.2205 -1.1247  0.3341
 1555UDC    C1017104   9.422  20.774   2.701 -1.0098 -0.7309  0.2741
 1555UDC    C1117105   9.444  20.865   2.585 -0.0772  0.3841  0.0091
 1556UDC     C117106   3.258  10.083   4.494 -0.3034  1.0926  0.0003
 1556UDC     C217107   3.200   9.973   4.586 -0.0984  0.2013  0.4727
 1556UDC     C317108   3.076   9.919   4.513 -0.5584 -0.2227 -0.4124
 1556UDC     C417109   3.021   9.796   4.580 -0.6303 -0.1530  0.8531
 1556UDC     C517110   2.932   9.719   4.488 -0.2326 -0.3644 -0.5449
 1556UDC     C617111   2.898   9.574   4.522  0.3465  1.0462 -0.0901
 1556UDC     C717112   2.767   9.539   4.600  0.8770  0.0018  0.9476
 1556UDC     C817113   2.778   9.398   4.667 -0.8668 -0.9314  0.0086
 1556UDC     C917114   2.663   9.332   4.735  0.7893  0.0127  0.2035
 1556UDC    C1017115   2.721   9.273   4.870  0.3631 -0.7852  0.5516
 1556UDC    C1117116   2.827   9.173   4.831 -0.0251 -1.1816  0.3357
 1557UDC     C117117  15.088  11.381  10.436 -0.1792 -0.8042 -0.3145
 1557UDC     C217118  15.166  11.484  10.523 -0.6679 -0.2132 -0.2604
 1557UDC     C317119  15.093  11.609  10.575  0.1671  0.1682  1.0244
 1557UDC     C417120  14.962  11.569  10.639  1.0004 -0.4653  0.2158
 1557UDC     C517121  14.987  11.552  10.792 -0.0308 -0.1545  1.1344
 1557UDC     C617122  15.006  11.663  10.894  0.4103  1.2931 -0.3967
 1557UDC     C717123  15.007  11.599  11.028  0.5851  0.5541  0.1077
 1557UDC     C817124  14.879  11.529  11.082  0.0765  0.2194  0.8493
 1557UDC     C917125  14.878  11.495  11.229 -0.3311  0.2370  0.0916
 1557UDC    C1017126  14.895  11.612  11.327  0.0626 -0.9425  1.0184
 1557UDC    C1117127  14.786  11.705  11.293  0.3539 -0.0686  0.4255
 1558UDC     C117128   1.561   4.326   3.865  1.0369  0.0061 -0.6033
 1558UDC     C217129   1.698   4.375   3.926  0.4929 -0.0777  0.6261
 1558UDC     C317130   1.805   4.273   3.916  0.5185  0.1549  0.0478
 1558UDC     C417131   1.924   4.311   4.011  0.1191  0.7875  0.5161
 1558UDC     C517132   2.047   4.220   4.019  0.2238 -0.3651 -0.3888
 1558UDC     C617133   2.116   4.189   3.887  0.1328 -0.1946  1.2842
 1558UDC     C717134   2.212   4.076   3.895 -1.0846 -0.2140 -0.3960
 1558UDC     C817135   2.342   4.115   3.978  0.1205 -0.8583  0.9658
 1558UDC     C917136   2.461   4.014   3.997  0.4347 -0.4203  0.4045
 1558UDC    C1017137   2.422   3.894   4.078  0.7517  1.3160 -0.3856
 1558UDC    C1117138   2.450   3.920   4.227  0.1611 -0.1783 -0.6938
 1559UDC     C117139  14.686   7.259   2.165 -0.1986  0.6755 -0.8136
 1559UDC     C217140  14.578   7.347   2.244  0.3981  0.7009 -0.3150
 1559UDC     C317141  14.524   7.293   2.388 -0.3560  0.2175 -0.6699
 1559UDC     C417142  14.369   7.303   2.406 -0.0582 -0.3859 -0.0525
 1559UDC     C517143  14.296   7.175   2.375  0.5983  0.1352 -0.6925
 1559UDC     C617144  14.223   7.195   2.237 -0.8511  1.4890 -0.5821
 1559UDC     C717145  14.188   7.058   2.183  0.0448 -0.2339  0.0618
 1559UDC     C817146  14.106   7.048   2.057  0.0276 -0.6466  0.7087
 1559UDC     C917147  14.034   6.913   2.063 -0.2799  0.8247  0.8624
 1559UDC    C1017148  13.897   6.896   1.971  0.3936 -0.2767 -1.1942
 1559UDC    C1117149  13.760   6.956   1.997  0.2137  0.1047  0.3995
 1560UDC     C117150  14.478  16.109  17.176 -1.3573  0.9090 -0.9339
 1560UDC     C217151  14.396  16.231  17.134 -0.5912 -0.8085 -0.8969
 1560UDC     C317152  14.264  16.224  17.222  0.1764  0.4295 -0.7033
 1560UDC     C417153  14.189  16.356  17.220  0.0177 -0.0702 -0.1972
 1560UDC     C517154  14.156  16.405  17.078 -0.1308 -0.2084 -0.5361
 1560UDC     C617155  14.115  16.555  17.059 -0.0559  1.6427 -0.0892
 1560UDC     C717156  14.061  16.586  16.924  0.4758 -0.5082  0.2019
 1560UDC     C817157  13.981  16.717  16.913 -0.7648  0.6906 -0.3419
 1560UDC     C917158  14.047  16.836  16.979 -0.0001 -0.5453 -0.0319
 1560UDC    C1017159  13.983  16.968  16.973  0.2679  0.3748  1.1060
 1560UDC    C1117160  14.046  17.043  17.086 -0.7673 -0.2257 -0.4600
 1561UDC     C117161  13.396  11.466  17.144  0.1055 -0.3406 -1.1301
 1561UDC     C217162  13.492  11.576  17.116 -0.2193 -0.3864 -0.7042
 1561UDC     C317163  13.481  11.707  17.197  0.1346  0.0990  0.1120
 1561UDC     C417164  13.327  11.744  17.200 -0.2619 -0.0242  0.6973
 1561UDC     C517165  13.287  11.811  17.328  0.5383 -0.6628 -0.5187
 1561UDC     C617166  13.213  11.938  17.298 -0.3563  0.1431  0.7482
 1561UDC     C717167  13.067  11.929  17.259  0.2928  1.2612  0.2657
 1561UDC     C817168  12.960  11.877  17.356 -0.0896  1.0123 -0.6252
 1561UDC     C917169  12.838  11.811  17.293  0.4258 -0.6715 -1.3798
 1561UDC    C1017170  12.746  11.752  17.403 -1.2560  0.5960 -0.1406
 1561UDC    C1117171  12.737  11.850  17.521 -1.2069  0.0249 -0.4829
 1562UDC     C117172   2.779   5.941   5.814 -1.0140 -0.2422 -0.2668
 1562UDC     C217173   2.664   5.847   5.783  0.0661 -1.0073  0.1346
 1562UDC     C317174   2.580   5.888   5.659  0.4149 -0.2851 -0.7745
 1562UDC     C417175   2.443   5.825   5.664  0.4434 -0.3925  0.1580
 1562UDC     C517176   2.369   5.921   5.566  0.3006 -1.0286 -0.0694
 1562UDC     C617177   2.430   5.896   5.431 -0.9116 -1.0431 -0.2391
 1562UDC     C717178   2.335   5.972   5.325  1.0218 -0.0016  0.5718
 1562UDC     C817179   2.343   5.943   5.172  0.1179  0.2608 -0.4067
 1562UDC     C917180   2.435   6.043   5.100  0.1591 -0.8301 -0.6630
 1562UDC    C1017181   2.395   6.188   5.117  0.1189 -0.5690 -0.0404
 1562UDC    C1117182   2.487   6.282   5.041 -0.8355 -0.0581  0.0467
 1563UDC     C117183  18.942   5.859   6.950  0.3758  0.3062  0.2877
 1563UDC     C217184  18.957   5.706   6.910  0.2518 -0.1046 -0.4596
 1563UDC     C317185  19.095   5.642   6.877 -0.4187  0.1854 -0.7278
 1563UDC     C417186  19.094   5.484   6.886  0.6265 -0.1303  0.5703
 1563UDC     C517187  19.060   5.414   6.754 -0.5782  0.8989  0.0541
 1563UDC     C617188  19.013   5.274   6.792 -0.5537  1.3241 -0.0406
 1563UDC     C717189  18.861   5.266   6.835 -0.3419 -0.0150 -0.1214
 1563UDC     C817190  18.825   5.123   6.895 -0.7172  0.4042  0.8873
 1563UDC     C917191  18.673   5.129   6.948 -0.6073  0.0735 -0.0921
 1563UDC    C1017192  18.648   5.038   7.072 -0.7175  0.4311 -0.2145
 1563UDC    C1117193  18.706   5.086   7.206 -0.9309  0.6207 -0.2986
 1564UDC     C117194   3.228  19.986   6.820 -0.2486 -0.2905 -0.6956
 1564UDC     C217195   3.139  19.916   6.925 -0.5831  0.3902 -0.0574
 1564UDC     C317196   2.985  19.932   6.942  0.1302 -0.5794  0.6068
 1564UDC     C417197   2.945  20.003   6.809 -0.3770  0.5878  0.6475
 1564UDC     C517198   2.793  20.049   6.795 -0.5667  0.7316  0.0199
 1564UDC     C617199   2.762  20.195   6.816  0.1221 -0.0998  0.0440
 1564UDC     C717200   2.632  20.223   6.740 -0.2831 -0.6180 -0.2626
 1564UDC     C817201   2.669  20.348   6.662  0.4228  0.8501 -0.2388
 1564UDC     C917202   2.742  20.447   6.750 -0.1233  0.0789  0.3430
 1564UDC    C1017203   2.792  20.579   6.685 -0.2550  0.6915 -0.1271
 1564UDC    C1117204   2.929  20.558   6.618 -0.1123 -0.2416 -0.3538
 1565UDC     C117205  14.543  15.364  19.082 -1.1395 -0.5511  0.7651
 1565UDC     C217206  14.693  15.382  19.118 -0.5328 -0.2298  0.7288
 1565UDC     C317207  14.756  15.510  19.068  0.1993  0.1307  0.3459
 1565UDC     C417208  14.773  15.603  19.185  0.2996  0.9211 -0.7241
 1565UDC     C517209  14.785  15.756  19.150  0.3661  0.1935  0.4044
 1565UDC     C617210  14.922  15.823  19.152 -0.3249 -0.0931  0.7293
 1565UDC     C717211  14.993  15.839  19.284 -2.0988 -0.2445  0.1164
 1565UDC     C817212  15.136  15.891  19.275 -0.2950  0.2774  0.7603
 1565UDC     C917213  15.136  16.031  19.210  0.4275  0.4468  0.0617
 1565UDC    C1017214  15.277  16.079  19.180  0.4164  0.6771  0.1030
 1565UDC    C1117215  15.302  16.198  19.270  0.1489 -0.7522  0.0954
 1566UDC     C117216   4.904  16.291   6.899 -1.2325 -1.0472  0.1180
 1566UDC     C217217   4.971  16.397   6.803  0.7639 -0.4809 -0.2919
 1566UDC     C317218   5.123  16.402   6.795 -0.9099 -0.2827 -1.2487
 1566UDC     C417219   5.193  16.497   6.904 -0.4726 -0.0580  0.0608
 1566UDC     C517220   5.198  16.644   6.854 -0.6071 -0.7862  0.0075
 1566UDC     C617221   5.298  16.674   6.744 -0.2465 -0.4694 -0.5750
 1566UDC     C717222   5.411  16.776   6.777 -0.3859 -0.1464  0.7254
 1566UDC     C817223   5.510  16.757   6.893  0.6596  0.3590  0.0742
 1566UDC     C917224   5.596  16.628   6.887 -0.3758  0.2003  0.2464
 1566UDC    C1017225   5.615  16.553   7.029  0.6812 -1.3046 -0.2040
 1566UDC    C1117226   5.490  16.497   7.102 -0.1209  0.1929  0.0039
 1567UDC     C117227  17.803   9.546   1.566 -0.4256 -0.1615 -0.1452
 1567UDC     C217228  17.932   9.472   1.502 -0.6455  0.4218 -0.0867
 1567UDC     C317229  17.894   9.366   1.396 -0.9351 -0.4657  0.0206
 1567UDC     C417230  17.840   9.426   1.268 -0.5902  0.0524  1.2028
 1567UDC     C517231  17.771   9.326   1.178  0.1470  0.5990  0.0649
 1567UDC     C617232  17.785   9.177   1.227  1.0231 -0.6579  1.0213
 1567UDC     C717233  17.684   9.067   1.205  0.1321 -0.5156 -0.5734
 1567UDC     C817234  17.697   8.956   1.309 -0.7566  0.1879 -0.8169
 1567UDC     C917235  17.634   8.827   1.265 -0.0092 -0.4345 -0.2734
 1567UDC    C1017236  17.484   8.816   1.296  0.1930  0.6284  0.9239
 1567UDC    C1117237  17.460   8.846   1.443  0.5444 -0.0070  0.2473
 1568UDC     C117238  11.095  16.888   9.464  0.2231 -0.4144 -0.5539
 1568UDC     C217239  11.242  16.835   9.444  0.0096  0.1152  0.0814
 1568UDC     C317240  11.377  16.903   9.467 -0.8182 -0.7137 -0.2730
 1568UDC     C417241  11.479  16.891   9.353 -0.4045  0.2338  0.3065
 1568UDC     C517242  11.636  16.896   9.379  0.1163 -0.8663 -1.4001
 1568UDC     C617243  11.715  16.844   9.253 -0.0625  0.4666  0.0981
 1568UDC     C717244  11.867  16.857   9.264  0.4361 -0.4003  0.1772
 1568UDC     C817245  11.940  16.753   9.338 -1.3709 -1.0752 -0.3073
 1568UDC     C917246  12.091  16.775   9.365 -1.3430 -0.3364 -0.2077
 1568UDC    C1017247  12.147  16.662   9.453 -0.1675  0.4211  0.4266
 1568UDC    C1117248  12.128  16.671   9.611 -0.6513 -0.0759 -0.4730
 1569UDC     C117249  10.274   9.566   6.331  0.8520  0.6367  0.4935
 1569UDC     C217250  10.146   9.647   6.334  0.3977  0.3283 -0.9300
 1569UDC     C317251  10.038   9.592   6.427 -0.5136  0.6979 -0.6680
 1569UDC     C417252  10.076   9.552   6.573 -0.6593  0.3617 -0.5114
 1569UDC     C517253   9.961   9.479   6.646 -0.4666  0.4585  0.3785
 1569UDC     C617254   9.940   9.448   6.796  0.0478  0.3862  0.5752
 1569UDC     C717255   9.790   9.425   6.815  0.5584  0.4605  0.2524
 1569UDC     C817256   9.760   9.382   6.953  0.3736  0.8142 -0.1269
 1569UDC     C917257   9.816   9.459   7.072  0.2317 -0.2244 -0.9067
 1569UDC    C1017258   9.792   9.387   7.207  0.9461 -0.1584  0.3939
 1569UDC    C1117259   9.641   9.376   7.220  1.1189 -0.2906  0.4337
 1570UDC     C117260  18.719  14.053  15.749 -0.3790  0.3351 -0.0953
 1570UDC     C217261  18.618  13.971  15.673  0.6810 -0.8037 -0.3023
 1570UDC     C317262  18.500  13.935  15.770  0.5167  0.0209  0.5374
 1570UDC     C417263  18.384  13.843  15.717 -0.7873  0.1496  0.1760
 1570UDC     C517264  18.274  13.897  15.625 -0.9880 -1.2786 -0.5889
 1570UDC     C617265  18.159  13.809  15.596  0.3306  0.0580  0.4904
 1570UDC     C717266  18.067  13.827  15.478  0.7154 -0.2839  0.8905
 1570UDC     C817267  17.992  13.957  15.475  0.4564 -0.0582  0.6263
 1570UDC     C917268  17.929  13.991  15.336  0.7576 -0.7401  0.6485
 1570UDC    C1017269  17.886  14.139  15.350 -1.1045 -0.4123 -0.5816
 1570UDC    C1117270  17.815  14.204  15.229  1.6119 -0.8835  0.0055
 1571UDC     C117271  17.566  11.493   6.565  0.6260 -0.3972 -0.7228
 1571UDC     C217272  17.433  11.525   6.629  0.2008  0.3000  0.3893
 1571UDC     C317273  17.297  11.483   6.567 -0.2040  0.2007 -0.2753
 1571UDC     C417274  17.194  11.558   6.654 -0.1600  0.5338 -0.3201
 1571UDC     C517275  17.062  11.583   6.573  0.5622 -0.1706  1.4239
 1571UDC     C617276  17.000  11.458   6.497 -1.2200 -0.1066  0.0858
 1571UDC     C717277  16.853  11.473   6.463 -0.0619 -0.8399  0.1661
 1571UDC     C817278  16.747  11.450   6.578 -0.3525  1.3455  1.0800
 1571UDC     C917279  16.596  11.443   6.569  0.0602 -0.4848  0.4097
 1571UDC    C1017280  16.503  11.420   6.693 -0.1192  0.6710  0.1919
 1571UDC    C1117281  16.356  11.407   6.665  0.0326  0.2593  0.8901
 1572UDC     C117282   8.749  16.276   0.531 -0.5047 -0.0917  0.8177
 1572UDC     C217283   8.632  16.179   0.551 -1.0145  0.1355 -0.2542
 1572UDC     C317284   8.678  16.048   0.618  0.6052 -1.0866  0.5498
 1572UDC     C417285   8.574  15.934   0.628 -0.6108 -0.7602 -0.1357
 1572UDC     C517286   8.439  15.978   0.689  0.1865  0.3932  0.5632
 1572UDC     C617287   8.333  15.858   0.699  1.3569 -0.7656  1.4242
 1572UDC     C717288   8.230  15.920   0.800 -0.3347  0.6999 -0.2526
 1572UDC     C817289   8.155  16.043   0.753 -0.2615 -1.0763  0.7827
 1572UDC     C917290   8.080  16.012   0.621 -0.7762 -0.0252 -0.1963
 1572UDC    C1017291   7.994  16.134   0.569  0.1989 -0.0824  0.5574
 1572UDC    C1117292   8.069  16.250   0.499 -0.7169 -0.0128  0.8603
 1573UDC     C117293  19.042   4.342   0.122 -0.7715 -0.1494 -1.3783
 1573UDC     C217294  19.120   4.414   0.022 -1.3939 -0.9328  0.1554
 1573UDC     C317295  19.176   4.553   0.072  0.4257  0.4048  0.1110
 1573UDC     C417296  19.286   4.636  -0.001  0.7221  0.4709  0.1849
 1573UDC     C517297  19.244   4.682  -0.144 -0.2258 -0.7596 -0.2632
 1573UDC     C617298  19.124   4.786  -0.140  0.1908  0.0175  0.2307
 1573UDC     C717299  19.070   4.840  -0.276 -0.3585  0.1573 -0.8673
 1573UDC     C817300  18.956   4.935  -0.244  0.5492  0.0749 -1.0038
 1573UDC     C917301  18.822   4.891  -0.298 -1.1575  0.1573 -0.3083
 1573UDC    C1017302  18.816   4.877  -0.453  0.0171  0.0859  1.0220
 1573UDC    C1117303  18.713   4.771  -0.497  0.0086  0.4594 -0.1379
 1574UDC     C117304  19.012  13.404  17.248  0.0097 -0.7804 -0.5839
 1574UDC     C217305  19.069  13.356  17.376 -0.4769  0.7945  0.0531
 1574UDC     C317306  18.993  13.360  17.504 -0.1727 -0.3681 -0.3104
 1574UDC     C417307  19.041  13.260  17.616 -0.6472 -0.5428  1.5417
 1574UDC     C517308  18.961  13.300  17.739  0.4512 -0.9339 -0.8082
 1574UDC     C617309  18.958  13.193  17.842 -0.0144 -0.2335  0.2078
 1574UDC     C717310  18.860  13.070  17.823 -0.4937  0.1791 -0.4265
 1574UDC     C817311  18.704  13.084  17.825 -0.3034 -0.6515  0.9643
 1574UDC     C917312  18.639  13.109  17.962 -1.4931  0.6191 -0.4847
 1574UDC    C1017313  18.491  13.161  17.990  0.1007 -0.1575 -0.7578
 1574UDC    C1117314  18.459  13.237  18.117 -0.0953 -0.4108  0.0355
 1575UDC     C117315  13.583  11.054   0.114 -0.7366 -0.0222  0.6963
 1575UDC     C217316  13.427  11.047   0.106 -0.6040  0.8595 -0.5100
 1575UDC     C317317  13.365  11.046  -0.036 -0.8843  0.5440 -1.2070
 1575UDC     C417318  13.214  11.056  -0.035 -1.3206  0.5327  0.3550
 1575UDC     C517319  13.143  11.185  -0.014 -0.2074  0.0667 -0.1819
 1575UDC     C617320  12.992  11.172  -0.059  0.0892 -0.7119  0.1520
 1575UDC     C717321  12.905  11.065   0.014 -0.4749  0.4425 -0.9983
 1575UDC     C817322  12.782  11.008  -0.057 -0.5139 -0.0981  0.4334
 1575UDC     C917323  12.707  10.905   0.026  0.9314 -0.1785  0.3622
 1575UDC    C1017324  12.564  10.869  -0.028 -0.1555 -0.8688  0.0896
 1575UDC    C1117325  12.573  10.807  -0.171  1.6200  0.6907  0.0395
 1576UDC     C117326   3.194  10.603  18.120 -0.0041  0.6341  0.1705
 1576UDC     C217327   3.175  10.515  18.244 -0.7572  0.1862  0.2196
 1576UDC     C317328   3.252  10.381  18.232  0.0645 -1.6628 -1.1271
 1576UDC     C417329   3.398  10.404  18.204 -1.6218 -0.2819  0.8445
 1576UDC     C517330   3.480  10.499  18.300  0.8247  0.0571 -0.8776
 1576UDC     C617331   3.625  10.525  18.302  0.1200 -1.1108 -0.3009
 1576UDC     C717332   3.718  10.405  18.255 -0.3194 -0.2563  0.2800
 1576UDC     C817333   3.813  10.454  18.143  0.4337  0.1251  0.3686
 1576UDC     C917334   3.705  10.491  18.040 -0.3715 -1.2793 -0.2514
 1576UDC    C1017335   3.745  10.468  17.895 -0.6300  0.7625 -0.8092
 1576UDC    C1117336   3.872  10.522  17.827  0.4067 -0.7626  0.3879
 1577UDC     C117337   5.686   9.433   7.017  0.1735  0.0739  0.6184
 1577UDC     C217338   5.680   9.478   6.862 -0.5171  1.0121 -0.4417
 1577UDC     C317339   5.563   9.391   6.800  0.6086 -0.5986 -0.2828
 1577UDC     C417340   5.615   9.251   6.751  2.0224 -0.3120  0.1101
 1577UDC     C517341   5.529   9.131   6.775 -0.0458 -0.0179 -0.2491
 1577UDC     C617342   5.580   8.992   6.726  0.2033 -0.8810 -0.5283
 1577UDC     C717343   5.730   8.975   6.775  0.3968  0.1067 -0.5004
 1577UDC     C817344   5.797   8.951   6.915  0.2280 -0.0590  0.1513
 1577UDC     C917345   5.714   8.835   6.975  0.2088 -0.6671  1.1555
 1577UDC    C1017346   5.776   8.799   7.110  0.4390  0.9193 -0.3821
 1577UDC    C1117347   5.746   8.900   7.223 -1.1789  1.0701 -0.6461
 1578UDC     C117348   1.193  13.515  19.627 -0.4025 -0.0362  0.2304
 1578UDC     C217349   1.233  13.380  19.694 -0.9501 -1.2354 -0.3201
 1578UDC     C317350   1.346  13.392  19.796 -0.3546  0.6271 -0.6816
 1578UDC     C417351   1.387  13.261  19.870  0.2005 -0.3694 -0.5598
 1578UDC     C517352   1.460  13.146  19.798 -0.4714 -0.8258 -0.5209
 1578UDC     C617353   1.588  13.193  19.721  0.0908 -0.0040 -0.8955
 1578UDC     C717354   1.684  13.081  19.707 -0.4834  0.4163 -0.1853
 1578UDC     C817355   1.818  13.104  19.640  0.2315  0.5748  0.1468
 1578UDC     C917356   1.899  12.976  19.617  0.1180 -0.1020 -0.3234
 1578UDC    C1017357   2.024  12.974  19.524 -2.0248 -0.3809 -0.4833
 1578UDC    C1117358   2.160  13.025  19.579  0.0136 -0.0450 -0.3085
 1579UDC     C117359  17.430  12.580  18.548  0.1001 -0.2447 -0.0944
 1579UDC     C217360  17.302  12.663  18.577 -0.5280 -0.6129 -0.7293
 1579UDC     C317361  17.178  12.616  18.509 -0.5817 -0.2702  0.2710
 1579UDC     C417362  17.171  12.640  18.359 -0.5978 -0.5721 -0.1508
 1579UDC     C517363  17.163  12.782  18.322  0.3957 -1.4888  1.2509
 1579UDC     C617364  17.236  12.800  18.188 -1.9177 -0.5534  0.7030
 1579UDC     C717365  17.245  12.931  18.112  0.0789 -0.1786  0.0959
 1579UDC     C817366  17.308  12.910  17.975  0.3549 -0.0791  0.8896
 1579UDC     C917367  17.310  13.031  17.878 -0.2434  0.0358 -0.1740
 1579UDC    C1017368  17.434  13.129  17.879  0.4205 -0.8012  0.2940
 1579UDC    C1117369  17.418  13.244  17.788  0.5767 -0.8767  0.2606
 1580UDC     C117370  12.194  12.503  17.404 -0.2133  0.1226 -0.8689
 1580UDC     C217371  12.172  12.372  17.480  0.4419 -0.1990  0.7923
 1580UDC     C317372  12.123  12.366  17.618  0.8853 -0.1818  0.4151
 1580UDC     C417373  11.982  12.430  17.642 -0.7994 -0.0309  0.1472
 1580UDC     C517374  11.938  12.419  17.788 -0.3721 -0.6776  0.0607
 1580UDC     C617375  11.829  12.510  17.854 -0.3517  0.2257 -0.3011
 1580UDC     C717376  11.678  12.497  17.838  1.0048  0.4548  1.5191
 1580UDC     C817377  11.594  12.609  17.896  0.4075  0.3852  0.9663
 1580UDC     C917378  11.631  12.756  17.857  0.5015 -0.5529 -0.0595
 1580UDC    C1017379  11.612  12.883  17.953  0.4866  0.3188 -1.3581
 1580UDC    C1117380  11.690  13.006  17.915 -0.6266  0.6464  0.5883
 1581UDC     C117381   6.093  17.945  18.293 -0.5333  0.9804  0.1522
 1581UDC     C217382   6.141  17.991  18.154 -0.5226  0.3935 -0.5283
 1581UDC     C317383   6.194  17.870  18.070 -0.8841 -0.5667 -0.5396
 1581UDC     C417384   6.089  17.802  17.982  0.7460  0.6034 -1.2416
 1581UDC     C517385   6.005  17.893  17.887  0.5572 -0.1703  0.2244
 1581UDC     C617386   5.874  17.842  17.820  0.5823 -0.7541 -0.8244
 1581UDC     C717387   5.879  17.715  17.737 -0.0464  0.6097  0.1450
 1581UDC     C817388   5.781  17.609  17.800 -0.2987  0.3728 -1.0860
 1581UDC     C917389   5.819  17.558  17.935 -0.0243  0.2172 -0.1390
 1581UDC    C1017390   5.739  17.432  17.972  0.1163  0.4437  0.3708
 1581UDC    C1117391   5.594  17.465  17.974  0.7839  0.0824 -0.0655
 1582UDC     C117392  19.789   2.289  11.091 -1.0347 -0.6290 -0.5336
 1582UDC     C217393  19.819   2.367  11.222  0.7058 -0.0929  0.4861
 1582UDC     C317394  19.698   2.395  11.318 -0.5156 -1.1642  0.8100
 1582UDC     C417395  19.736   2.497  11.423 -0.2158 -0.5651  0.0021
 1582UDC     C517396  19.828   2.599  11.351  0.2787 -0.9713 -0.6890
 1582UDC     C617397  19.814   2.733  11.419 -0.2798  0.1747  0.6522
 1582UDC     C717398  19.892   2.733  11.547  0.8353  0.0926 -0.1906
 1582UDC     C817399  19.861   2.843  11.642 -1.2785 -0.2371  0.3381
 1582UDC     C917400  19.914   2.815  11.778 -0.4869 -0.5426  1.0032
 1582UDC    C1017401  19.832   2.719  11.869  0.6486 -0.4056 -0.6638
 1582UDC    C1117402  19.939   2.635  11.939  0.1774  0.0607 -0.6629
 1583UDC     C117403  15.574   4.232  12.526  0.0303  0.7228  0.7897
 1583UDC     C217404  15.514   4.180  12.654  0.7709  0.7846  1.2170
 1583UDC     C317405  15.591   4.226  12.776 -0.2277  0.4369 -1.1789
 1583UDC     C417406  15.611   4.384  12.784 -0.2446  0.0552  0.1055
 1583UDC     C517407  15.704   4.401  12.905  0.5342  0.7446 -0.4308
 1583UDC     C617408  15.732   4.543  12.955  0.9268 -0.3360 -0.5709
 1583UDC     C717409  15.633   4.607  13.062 -0.3006  0.3576  0.1230
 1583UDC     C817410  15.680   4.745  13.109 -0.0663 -0.3310 -1.2509
 1583UDC     C917411  15.572   4.826  13.168  0.8530 -0.6725  0.1808
 1583UDC    C1017412  15.605   4.979  13.173 -0.1178  0.2443 -0.2753
 1583UDC    C1117413  15.545   5.012  13.035 -0.7119  0.3622  0.8502
 1584UDC     C117414  18.239  15.736  16.115 -0.6397  0.3955 -0.0823
 1584UDC     C217415  18.301  15.791  15.991 -1.4620 -0.3582  0.4521
 1584UDC     C317416  18.393  15.917  16.011  0.1678 -0.5589 -0.3921
 1584UDC     C417417  18.372  15.990  15.876  0.8020  0.3979  0.0700
 1584UDC     C517418  18.480  15.936  15.780  0.4060  0.3915  0.0634
 1584UDC     C617419  18.542  16.043  15.689  0.3723 -0.2538  0.1501
 1584UDC     C717420  18.647  16.137  15.755  0.8183 -0.4351 -0.3082
 1584UDC     C817421  18.694  16.233  15.643  0.8963  0.5842 -0.3028
 1584UDC     C917422  18.792  16.355  15.677  0.6995  0.4570  0.0009
 1584UDC    C1017423  18.889  16.393  15.564  0.5367  0.9875  0.2748
 1584UDC    C1117424  18.976  16.268  15.522  0.2565  0.2260  0.9436
 1585UDC     C117425  10.520  19.136  13.169 -0.1457  1.0437 -0.7544
 1585UDC     C217426  10.510  19.135  13.015  0.2582  0.4611 -0.1278
 1585UDC     C317427  10.445  19.242  12.935  1.0206  0.1978  0.2411
 1585UDC     C417428  10.292  19.234  12.948  0.4000 -0.2095  1.0276
 1585UDC     C517429  10.230  19.097  12.901  0.2108  0.1256 -0.5975
 1585UDC     C617430  10.085  19.078  12.941 -0.6137 -0.1864  0.2072
 1585UDC     C717431   9.977  19.184  12.911 -0.8933 -0.1948  0.9423
 1585UDC     C817432   9.943  19.276  13.031 -0.5643  1.0832  1.0672
 1585UDC     C917433   9.811  19.349  12.991  0.4531  0.3982  0.0099
 1585UDC    C1017434   9.773  19.471  13.075 -0.3479  0.9224 -0.9243
 1585UDC    C1117435   9.701  19.427  13.204  0.3447  0.2638  0.1095
 1586UDC     C117436   5.368  16.902  17.535 -0.9084 -0.2767 -0.5303
 1586UDC     C217437   5.431  17.042  17.551 -0.8293 -0.1758  0.4247
 1586UDC     C317438   5.330  17.152  17.583  0.6896  0.1685  0.2582
 1586UDC     C417439   5.227  17.174  17.471 -0.4940  0.2901 -0.2793
 1586UDC     C517440   5.131  17.279  17.531  0.6550  0.2637 -0.6588
 1586UDC     C617441   5.179  17.381  17.636 -0.3999  0.8417  1.2423
 1586UDC     C717442   5.078  17.485  17.675  0.0882 -0.9518  0.0231
 1586UDC     C817443   5.159  17.565  17.769 -0.2564 -0.3773 -0.2219
 1586UDC     C917444   5.060  17.634  17.868 -0.2469  1.4394 -1.3007
 1586UDC    C1017445   5.140  17.711  17.976  0.4205  0.7055  2.5104
 1586UDC    C1117446   5.272  17.774  17.924 -0.0154  0.0676 -0.4428
 1587UDC     C117447   9.641   4.594  12.046 -0.1330 -0.4581 -0.0672
 1587UDC     C217448   9.589   4.587  11.903  0.4938  0.9916  0.2279
 1587UDC     C317449   9.434   4.591  11.901  0.2173 -1.1727  0.7072
 1587UDC     C417450   9.367   4.478  11.976  0.1885 -0.3556  0.0955
 1587UDC     C517451   9.308   4.380  11.882 -1.2845 -0.6099  0.6897
 1587UDC     C617452   9.244   4.261  11.952 -0.5936  1.1445  0.9396
 1587UDC     C717453   9.155   4.176  11.850 -0.3301  0.0678 -0.9767
 1587UDC     C817454   9.120   4.041  11.908  1.0220 -0.1852 -0.4291
 1587UDC     C917455   9.252   3.989  11.967  0.8762 -1.0887  1.7101
 1587UDC    C1017456   9.248   3.858  12.041  0.2965  0.3686  0.7020
 1587UDC    C1117457   9.374   3.786  12.091 -0.5796  0.2233 -0.3236
 1588UDC     C117458   1.299  11.144  18.603 -0.0108 -0.1022  0.2943
 1588UDC     C217459   1.390  11.184  18.486  0.5343  0.3129  1.0927
 1588UDC     C317460   1.488  11.299  18.482 -0.2136 -0.0692 -0.3691
 1588UDC     C417461   1.496  11.370  18.344 -0.0146 -0.0028 -0.7969
 1588UDC     C517462   1.552  11.518  18.347 -0.1258 -0.8111 -0.1745
 1588UDC     C617463   1.681  11.537  18.428  0.6550  0.7092 -0.0108
 1588UDC     C717464   1.748  11.678  18.409  1.9707  0.3142 -0.2008
 1588UDC     C817465   1.662  11.807  18.427  0.1733 -0.6865  0.3613
 1588UDC     C917466   1.584  11.797  18.560  0.1699  0.2859  1.5312
 1588UDC    C1017467   1.674  11.829  18.679  0.4834 -0.3104  0.0659
 1588UDC    C1117468   1.595  11.803  18.810  0.1945 -0.7735  0.0950
 1589UDC     C117469   1.453   1.273   2.086 -0.6897  0.0786 -0.4584
 1589UDC     C217470   1.567   1.194   2.026 -0.6040 -0.6415  0.0911
 1589UDC     C317471   1.587   1.179   1.876  0.5169 -0.3375 -0.0200
 1589UDC     C417472   1.654   1.040   1.840  0.1195 -0.3403  0.7929
 1589UDC     C517473   1.796   1.038   1.880 -0.3678  1.1189 -0.2789
 1589UDC     C617474   1.826   0.982   2.022  0.2618 -1.1295  0.5996
 1589UDC     C717475   1.947   0.880   2.024 -0.7358 -0.2894  0.1896
 1589UDC     C817476   2.011   0.854   2.163 -0.8431 -0.1995 -0.7233
 1589UDC     C917477   2.089   0.725   2.161 -1.1034  0.1846  0.1158
 1589UDC    C1017478   2.156   0.697   2.303 -0.0051 -0.3164 -0.1655
 1589UDC    C1117479   2.220   0.564   2.322 -0.7234 -1.0334  0.6661
 1590UDC     C117480  16.107   5.934   3.716 -0.7812  0.7498  0.6123
 1590UDC     C217481  16.162   5.893   3.578 -0.4501 -0.1330  0.3624
 1590UDC     C317482  16.111   5.757   3.529  0.0964 -0.3626  0.5702
 1590UDC     C417483  16.157   5.707   3.391 -0.3288  0.9006  0.5751
 1590UDC     C517484  16.149   5.554   3.361 -0.1991 -0.2230  0.6109
 1590UDC     C617485  16.233   5.448   3.444 -0.0482 -1.0269 -0.8613
 1590UDC     C717486  16.174   5.314   3.484  0.6175  0.4379 -0.2399
 1590UDC     C817487  16.280   5.222   3.542 -0.8906 -0.1349 -0.7096
 1590UDC     C917488  16.383   5.174   3.430  0.5697  0.3860 -0.7471
 1590UDC    C1017489  16.480   5.059   3.458 -0.1579  0.0619  0.1765
 1590UDC    C1117490  16.421   4.929   3.416 -0.0564  0.3048  1.0395
 1591UDC     C117491  11.149   8.605  11.318 -1.4660  0.2106 -0.0499
 1591UDC     C217492  11.243   8.485  11.286 -0.0367 -0.3360  0.5431
 1591UDC     C317493  11.256   8.470  11.130 -0.3553  1.2268  0.3523
 1591UDC     C417494  11.352   8.349  11.084 -0.4722 -0.2867  0.1595
 1591UDC     C517495  11.419   8.368  10.940  0.1054 -0.4938 -0.6732
 1591UDC     C617496  11.327   8.373  10.826  0.2301  0.1242  1.1791
 1591UDC     C717497  11.402   8.357  10.693  0.9926  0.5764 -0.8359
 1591UDC     C817498  11.530   8.279  10.729  0.4359 -0.0478  0.2426
 1591UDC     C917499  11.643   8.292  10.628 -0.7066  0.1539 -1.2749
 1591UDC    C1017500  11.700   8.442  10.615  0.0198  1.0301  0.5408
 1591UDC    C1117501  11.795   8.456  10.500  0.3196  0.1804  1.2164
 1592UDC     C117502  15.154  10.631   5.463 -0.4949 -0.4347 -0.2558
 1592UDC     C217503  15.300  10.616   5.421 -0.2515  0.2203 -0.0132
 1592UDC     C317504  15.304  10.501   5.322 -0.3846  0.7502 -0.4929
 1592UDC     C417505  15.433  10.486   5.230  1.1491 -0.6039  0.2525
 1592UDC     C517506  15.553  10.396   5.264  0.2363 -0.1845  1.7877
 1592UDC     C617507  15.592  10.407   5.407  0.3256 -0.2260 -0.3989
 1592UDC     C717508  15.617  10.285   5.494  0.1323 -0.4244 -0.5379
 1592UDC     C817509  15.516  10.169   5.511 -0.7241 -0.4503 -0.0830
 1592UDC     C917510  15.506  10.103   5.374  1.0340 -0.4407 -0.0085
 1592UDC    C1017511  15.426   9.978   5.404 -0.3406  0.5593 -0.0026
 1592UDC    C1117512  15.407   9.862   5.305 -0.8127 -0.4059  0.1654
 1593UDC     C117513   4.774   8.059  11.793  1.4592  0.4708 -1.0804
 1593UDC     C217514   4.781   8.191  11.871  0.1204  1.5534 -0.7072
 1593UDC     C317515   4.696   8.196  12.001 -0.5007  0.0771 -0.8545
 1593UDC     C417516   4.676   8.342  12.053 -1.0930  1.2783  0.1037
 1593UDC     C517517   4.616   8.342  12.193 -0.7780  0.0770 -0.5372
 1593UDC     C617518   4.586   8.481  12.233  0.0486 -1.5880 -0.4253
 1593UDC     C717519   4.554   8.515  12.385  0.6268 -0.1338 -0.3834
 1593UDC     C817520   4.464   8.632  12.410  0.8445  0.5434 -0.9539
 1593UDC     C917521   4.311   8.609  12.381 -0.3726 -0.3222  0.3440
 1593UDC    C1017522   4.226   8.727  12.418  0.2953  0.2071 -0.1424
 1593UDC    C1117523   4.076   8.698  12.394 -0.7822 -0.9336  0.6146
 1594UDC     C117524  18.779  17.220   7.747  0.4561  0.3338 -0.6399
 1594UDC     C217525  18.843  17.179   7.618 -0.1768  0.0980  0.3756
 1594UDC     C317526  18.806  17.263   7.501 -0.5786 -0.2675 -0.8165
 1594UDC     C417527  18.904  17.257   7.382 -1.4439  0.2425 -0.5319
 1594UDC     C517528  18.879  17.320   7.243  0.0724  0.7118 -0.2430
 1594UDC     C617529  19.006  17.309   7.152  1.0689  1.2599 -0.0344
 1594UDC     C717530  19.040  17.169   7.093 -0.5803 -0.2397  0.0761
 1594UDC     C817531  19.175  17.184   7.020  0.0035  0.4406 -0.2466
 1594UDC     C917532  19.215  17.077   6.913 -0.8542 -0.2746  0.2725
 1594UDC    C1017533  19.354  17.078   6.840  1.4359  0.4980 -0.6430
 1594UDC    C1117534  19.487  17.046   6.908  0.3218 -0.0236 -0.2742
 1595UDC     C117535  18.281   0.705   2.626 -0.3143  0.3674  0.4190
 1595UDC     C217536  18.151   0.747   2.544  1.0086  0.6762  0.4936
 1595UDC     C317537  18.022   0.792   2.618 -0.0698  0.7335  0.0047
 1595UDC     C417538  17.903   0.806   2.519 -0.7563 -0.0136 -0.4077
 1595UDC     C517539  17.872   0.674   2.448  0.9344 -0.2582  0.7750
 1595UDC     C617540  17.762   0.581   2.517 -0.3881 -0.5985  0.1743
 1595UDC     C717541  17.629   0.657   2.544  0.1612  0.4361 -0.7314
 1595UDC     C817542  17.533   0.589   2.644  0.2776 -0.5343  0.7270
 1595UDC     C917543  17.462   0.475   2.573  0.4587 -0.4823  0.6641
 1595UDC    C1017544  17.334   0.442   2.649 -0.6922  0.2956  0.5590
 1595UDC    C1117545  17.205   0.528   2.605  0.0782  0.3470  0.5400
 1596UDC     C117546   2.043  11.363  19.216 -0.0014 -0.3657  0.0330
 1596UDC     C217547   1.943  11.253  19.246  0.4085  0.4235 -0.0197
 1596UDC     C317548   1.998  11.118  19.305 -0.0906 -0.2400  0.1274
 1596UDC     C417549   1.907  11.016  19.375 -0.4688 -0.6774 -0.0056
 1596UDC     C517550   1.963  10.874  19.379  0.2355  0.5921  0.2885
 1596UDC     C617551   2.096  10.855  19.448  0.1398 -1.3252 -0.4808
 1596UDC     C717552   2.139  10.708  19.447 -0.6527 -0.1486  0.1849
 1596UDC     C817553   2.284  10.713  19.494  0.8387  0.3249  0.8222
 1596UDC     C917554   2.302  10.739  19.642 -0.0525  0.4628  1.0910
 1596UDC    C1017555   2.451  10.720  19.686 -0.1459  0.6031  0.0164
 1596UDC    C1117556   2.473  10.594  19.772 -0.1614  0.4020  0.1183
 1597UDC     C117557  16.593  15.147  18.006  0.2808  0.6709 -0.6565
 1597UDC     C217558  16.653  15.158  17.864 -1.0994 -0.0339  0.3373
 1597UDC     C317559  16.562  15.249  17.784  0.4453 -0.2270  0.2049
 1597UDC     C417560  16.411  15.213  17.784  0.6898 -0.7872  0.3556
 1597UDC     C517561  16.367  15.118  17.684 -0.4219  0.6888 -0.6988
 1597UDC     C617562  16.216  15.074  17.695 -0.2948  0.1299  0.6337
 1597UDC     C717563  16.163  15.058  17.841  0.6104  0.9009  0.1558
 1597UDC     C817564  16.010  15.077  17.867 -0.0150 -0.9529 -0.0366
 1597UDC     C917565  15.933  14.958  17.820  0.5256  0.5712  0.3962
 1597UDC    C1017566  15.786  14.994  17.844 -0.6566  1.2332 -0.1605
 1597UDC    C1117567  15.677  14.893  17.807  0.0749  0.1527 -0.5320
 1598UDC     C117568   7.318   9.259   6.361 -0.2691  1.0270  0.8894
 1598UDC     C217569   7.200   9.305   6.451 -0.3963  0.3447 -0.0602
 1598UDC     C317570   7.258   9.407   6.544  0.3493  0.2629 -0.6582
 1598UDC     C417571   7.261   9.547   6.488  0.6787 -0.3063 -0.2588
 1598UDC     C517572   7.281   9.657   6.601 -0.6806  0.4809 -0.0876
 1598UDC     C617573   7.210   9.790   6.564 -0.4075 -0.6232  0.0191
 1598UDC     C717574   7.183   9.885   6.681  0.5999  0.2113 -0.2263
 1598UDC     C817575   7.075   9.995   6.653  0.4630 -0.7005  0.5196
 1598UDC     C917576   7.132  10.101   6.566 -0.9849 -0.4412  1.0800
 1598UDC    C1017577   7.047  10.204   6.504  0.0121 -0.4057 -0.2066
 1598UDC    C1117578   6.917  10.179   6.430 -0.2693  1.2052 -1.0488
 1599UDC     C117579  14.919   8.496   3.310 -1.0232  0.1212  1.2677
 1599UDC     C217580  14.775   8.548   3.291 -1.0259 -1.2946 -0.3303
 1599UDC     C317581  14.665   8.456   3.235 -0.1041  0.3318 -0.1370
 1599UDC     C417582  14.638   8.331   3.321  0.6068 -0.4264 -0.4498
 1599UDC     C517583  14.499   8.318   3.394  0.2270 -1.6751 -0.5207
 1599UDC     C617584  14.462   8.181   3.445  0.8809  1.4650  0.5131
 1599UDC     C717585  14.519   8.123   3.574 -0.0947  0.0029  0.0094
 1599UDC     C817586  14.503   7.973   3.573 -0.0106 -0.1256  1.6579
 1599UDC     C917587  14.584   7.906   3.691 -0.0513 -0.3207  0.1164
 1599UDC    C1017588  14.539   7.762   3.695  0.2166 -0.0876  0.4314
 1599UDC    C1117589  14.660   7.663   3.711  0.4514 -0.1023 -0.4834
 1600UDC     C117590   3.846  14.868   4.621  0.6783  0.8014  0.2659
 1600UDC     C217591   3.977  14.904   4.683 -0.8794  0.6702 -0.4762
 1600UDC     C317592   4.005  14.825   4.813  0.5693  0.1785 -0.4985
 1600UDC     C417593   3.963  14.891   4.939  0.1391 -0.4023 -0.5638
 1600UDC     C517594   4.030  14.835   5.065 -0.1136 -0.1763  0.5640
 1600UDC     C617595   3.933  14.810   5.188  1.1121  0.2346 -0.0395
 1600UDC     C717596   3.988  14.771   5.328 -0.1568 -0.4226  0.9539
 1600UDC     C817597   3.888  14.759   5.442  0.3252 -0.6295  0.3571
 1600UDC     C917598   3.913  14.790   5.589 -0.8909 -0.9835  0.5309
 1600UDC    C1017599   3.777  14.816   5.648 -0.3755  0.4430  1.1410
 1600UDC    C1117600   3.790  14.810   5.799  0.1014 -0.6714 -0.5750
 1601UDC     C117601   4.781  14.673  12.472  0.0015  0.1299 -1.0446
 1601UDC     C217602   4.870  14.791  12.442  0.0549 -0.1942  1.0450
 1601UDC     C317603   4.938  14.769  12.300 -0.1723  0.4946 -0.3902
 1601UDC     C417604   4.837  14.724  12.196  1.4624  0.5132  0.4949
 1601UDC     C517605   4.874  14.723  12.044 -0.3386 -1.4564  1.2334
 1601UDC     C617606   4.815  14.629  11.939 -0.7498 -0.2170 -1.0287
 1601UDC     C717607   4.903  14.619  11.813  0.1325  0.8312 -0.3931
 1601UDC     C817608   4.898  14.484  11.739  0.0046 -0.3805  0.1259
 1601UDC     C917609   4.889  14.522  11.589  0.7209  0.6182  0.2572
 1601UDC    C1017610   4.971  14.451  11.485 -0.3144  0.5493  0.2106
 1601UDC    C1117611   4.916  14.461  11.343  1.2659  0.2536 -0.0580
 1602UDC     C117612   6.938   1.886   7.139  0.5256 -1.0510 -0.6031
 1602UDC     C217613   6.826   1.903   7.248  0.1136 -0.2553 -0.0213
 1602UDC     C317614   6.859   1.908   7.395 -0.1311  0.2357 -0.1750
 1602UDC     C417615   6.735   1.924   7.488  0.6308  0.0360  1.0963
 1602UDC     C517616   6.647   1.800   7.513  0.2184 -0.0660  0.6522
 1602UDC     C617617   6.678   1.723   7.641 -0.3971 -0.5580 -0.0070
 1602UDC     C717618   6.798   1.628   7.644 -0.4596 -0.6783  1.0081
 1602UDC     C817619   6.928   1.667   7.726  0.1213 -0.3628  0.0191
 1602UDC     C917620   7.018   1.579   7.812  1.2475  0.4136 -0.6163
 1602UDC    C1017621   7.167   1.586   7.784  0.6926  0.9888 -1.2373
 1602UDC    C1117622   7.192   1.524   7.651 -0.2270 -1.3694  0.2523
 1603UDC     C117623   9.081   8.826   6.268 -0.3606  1.1914 -0.2172
 1603UDC     C217624   9.085   8.949   6.182  0.2902 -0.9367  0.6355
 1603UDC     C317625   9.221   9.032   6.203 -1.0843  1.2271 -0.3113
 1603UDC     C417626   9.254   9.089   6.346  0.4009 -1.1865  0.1492
 1603UDC     C517627   9.409   9.071   6.365 -0.6042  0.8577 -0.5548
 1603UDC     C617628   9.448   9.072   6.521 -0.4081 -0.2025  0.7395
 1603UDC     C717629   9.598   9.086   6.560  0.2647  1.4113  0.3375
 1603UDC     C817630   9.690   9.000   6.471  0.4396  0.9488  0.0570
 1603UDC     C917631   9.827   9.074   6.467  0.3139  0.4346  0.4803
 1603UDC    C1017632   9.935   9.036   6.364  0.6450 -0.3898 -0.1660
 1603UDC    C1117633  10.066   9.100   6.400  0.5390  0.8390  0.2499
 1604UDC     C117634   1.195   2.412   6.467 -0.2001 -0.8709  0.3827
 1604UDC     C217635   1.084   2.497   6.405  0.5771  0.6419  0.6866
 1604UDC     C317636   1.081   2.459   6.258  0.1398  0.1000 -0.2680
 1604UDC     C417637   0.954   2.511   6.188 -0.1222 -0.0563  1.5250
 1604UDC     C517638   0.948   2.480   6.035  0.1325  0.2808 -0.7560
 1604UDC     C617639   1.014   2.600   5.971  0.4944  0.3132  0.9512
 1604UDC     C717640   0.895   2.698   5.978 -0.4921 -1.2541  0.6282
 1604UDC     C817641   0.913   2.826   5.902  0.4576  0.5952  0.1249
 1604UDC     C917642   0.816   2.831   5.786  0.4350 -0.6058 -0.0255
 1604UDC    C1017643   0.873   2.902   5.661 -0.6065 -0.2343 -1.5526
 1604UDC    C1117644   0.929   3.041   5.696  0.4043 -0.2864 -0.4051
 1605UDC     C117645   3.576   9.029  17.311 -0.3332  0.1426 -0.9116
 1605UDC     C217646   3.658   9.145  17.366 -0.4429  1.3808  0.4065
 1605UDC     C317647   3.752   9.103  17.479 -1.0034  0.3974  0.8352
 1605UDC     C417648   3.706   9.074  17.624 -0.0667  0.0344  0.1545
 1605UDC     C517649   3.812   9.041  17.735 -0.0080 -0.9646  1.4255
 1605UDC     C617650   3.736   8.977  17.853  0.5505  0.0284  0.3227
 1605UDC     C717651   3.641   8.854  17.832 -0.2095  0.5303  0.0549
 1605UDC     C817652   3.606   8.771  17.959 -0.2798 -0.3638  0.5904
 1605UDC     C917653   3.449   8.751  17.974  0.5469  0.8862  0.0334
 1605UDC    C1017654   3.376   8.883  18.013  0.4577 -0.7050  0.4677
 1605UDC    C1117655   3.245   8.869  18.093  0.6380  0.2571 -0.9104
 1606UDC     C117656   2.630  14.374  19.215  0.5037  0.7826 -1.3183
 1606UDC     C217657   2.571  14.244  19.154 -0.2221  1.3306  0.7317
 1606UDC     C317658   2.566  14.124  19.255  1.5237  1.1768  0.8420
 1606UDC     C417659   2.687  14.071  19.326  1.0032 -0.7992  1.1080
 1606UDC     C517660   2.662  13.969  19.433 -1.1203  0.9662  0.1926
 1606UDC     C617661   2.778  13.862  19.443 -0.1487 -1.0895  0.5927
 1606UDC     C717662   2.795  13.768  19.328  0.6554  0.2916 -0.1980
 1606UDC     C817663   2.938  13.716  19.331  1.6869  0.1650  0.1317
 1606UDC     C917664   2.969  13.634  19.209  0.1139 -0.2863 -0.3070
 1606UDC    C1017665   2.893  13.501  19.187 -0.7756  0.7163 -0.9419
 1606UDC    C1117666   2.987  13.392  19.124 -0.5299 -0.6224 -0.3556
 1607UDC     C117667   0.319  10.526   2.314  0.1039  0.5586  0.1172
 1607UDC     C217668   0.421  10.624   2.385 -0.6573 -0.2709  0.0204
 1607UDC     C317669   0.407  10.638   2.540 -0.4370 -0.3301  0.1356
 1607UDC     C417670   0.272  10.660   2.603  1.0620  0.5487 -0.2324
 1607UDC     C517671   0.255  10.581   2.734 -0.3251  0.6447  0.6213
 1607UDC     C617672   0.363  10.647   2.830 -0.5578 -0.2409 -0.0608
 1607UDC     C717673   0.308  10.781   2.867  0.7559 -0.1623  0.4596
 1607UDC     C817674   0.399  10.851   2.971  0.0622  0.0346  0.3599
 1607UDC     C917675   0.405  11.003   2.957 -1.6746 -1.1529  0.3492
 1607UDC    C1017676   0.450  11.108   3.060  0.3038  0.4219  0.3578
 1607UDC    C1117677   0.579  11.183   3.017 -0.7598 -0.0897 -1.0360
 1608UDC     C117678  19.661   2.653   6.726  0.7270 -0.6030 -1.6328
 1608UDC     C217679  19.750   2.543   6.684  0.0740  1.2474  0.0419
 1608UDC     C317680  19.754   2.408   6.761  0.4703 -0.8463 -0.2259
 1608UDC     C417681  19.817   2.292   6.685 -0.3377 -0.3510 -0.1364
 1608UDC     C517682  19.965   2.325   6.640  0.4519  0.3502  0.9669
 1608UDC     C617683  20.050   2.210   6.580  0.2153 -0.7922  0.1134
 1608UDC     C717684  20.081   2.102   6.677 -1.4668  0.7582 -0.9354
 1608UDC     C817685  20.214   2.118   6.751  0.2511  0.5068 -0.4487
 1608UDC     C917686  20.271   2.002   6.850  0.8450  1.2256  0.6302
 1608UDC    C1017687  20.393   2.041   6.936  0.3407  0.1478  0.2419
 1608UDC    C1117688  20.494   2.118   6.855 -0.2687  1.9455  0.3130
 1609UDC     C117689   0.125   7.667  17.749 -0.1021 -0.0610  0.5506
 1609UDC     C217690   0.037   7.741  17.859  0.3227  1.6930 -0.6398
 1609UDC     C317691   0.105   7.872  17.909 -0.1363  0.7000 -0.3174
 1609UDC     C417692   0.021   7.948  18.011  0.8801 -0.4802 -0.0291
 1609UDC     C517693  -0.041   7.855  18.113 -0.2192  0.9064  0.1359
 1609UDC     C617694  -0.092   7.902  18.249  0.5168 -0.5519 -0.0022
 1609UDC     C717695  -0.207   8.011  18.234 -0.0896  0.0217  0.9640
 1609UDC     C817696  -0.340   7.955  18.185 -0.0123  1.0955 -0.4563
 1609UDC     C917697  -0.462   8.053  18.184  0.0444 -0.1463 -0.1705
 1609UDC    C1017698  -0.595   8.019  18.110 -0.3813  1.3131  0.5180
 1609UDC    C1117699  -0.698   8.112  18.176 -0.1412  0.4563  0.0305
 1610UDC     C117700  11.440   0.853   1.838  0.5260 -0.2889 -0.1908
 1610UDC     C217701  11.467   0.782   1.969  0.0915  0.4058 -0.3707
 1610UDC     C317702  11.432   0.633   1.972 -0.0137 -2.0306 -1.8475
 1610UDC     C417703  11.318   0.600   2.074  0.2673 -0.3691  0.5038
 1610UDC     C517704  11.364   0.591   2.220  1.0421 -0.2340  0.8890
 1610UDC     C617705  11.242   0.519   2.292  0.4540  0.5518 -1.0426
 1610UDC     C717706  11.247   0.502   2.447 -0.0316  0.6122 -0.4328
 1610UDC     C817707  11.236   0.630   2.533 -0.0994  0.3745  0.0024
 1610UDC     C917708  11.144   0.603   2.649 -0.7597  0.4315 -0.9792
 1610UDC    C1017709  11.141   0.467   2.717  0.8848 -1.1328 -1.0145
 1610UDC    C1117710  11.032   0.452   2.829  0.2766 -1.3464 -0.9937
 1611UDC     C117711  18.316  10.441  13.145 -0.0999 -0.9754  0.0790
 1611UDC     C217712  18.225  10.523  13.237  1.3317  0.4984  0.0221
 1611UDC     C317713  18.083  10.469  13.207  0.0352  0.1307 -0.1136
 1611UDC     C417714  18.079  10.328  13.136  0.0459 -0.1551 -0.1468
 1611UDC     C517715  17.935  10.289  13.123 -1.1439  0.6586 -0.7884
 1611UDC     C617716  17.861  10.281  13.254 -0.5131 -1.0806 -1.0838
 1611UDC     C717717  17.865  10.143  13.319  1.2355  0.6083 -0.8036
 1611UDC     C817718  17.774  10.127  13.440  0.4392 -0.2771  1.0521
 1611UDC     C917719  17.781   9.997  13.516 -0.7264 -0.3481  1.8733
 1611UDC    C1017720  17.669  10.006  13.617  0.2588  0.4159  0.4305
 1611UDC    C1117721  17.537  10.007  13.534  0.0218 -0.1079  1.0336
 1612UDC     C117722  18.556  19.927   6.888 -0.7056  1.1829 -0.1066
 1612UDC     C217723  18.647  19.965   6.999 -1.1305 -0.3565  0.0011
 1612UDC     C317724  18.632  19.865   7.112  0.0368 -0.1773  1.4444
 1612UDC     C417725  18.682  19.928   7.239 -0.0461  0.3886  0.0343
 1612UDC     C517726  18.817  19.994   7.215  0.7631  0.6141 -0.3229
 1612UDC     C617727  18.851  20.054   7.354 -0.2434 -0.2190 -0.0959
 1612UDC     C717728  18.901  19.959   7.462 -0.0087 -0.6282 -0.4912
 1612UDC     C817729  19.033  19.897   7.416  1.0009 -0.0990 -0.8641
 1612UDC     C917730  19.109  19.865   7.547  0.9345 -0.4945 -0.5260
 1612UDC    C1017731  19.242  19.783   7.518  0.5890 -0.9905 -0.3627
 1612UDC    C1117732  19.371  19.855   7.568 -0.3769  1.2578  0.9195
 1613UDC     C117733   3.607  12.144  18.075 -0.5928  0.7318 -0.0544
 1613UDC     C217734   3.676  12.265  18.130 -0.5359  0.4240 -0.0946
 1613UDC     C317735   3.817  12.267  18.068  0.2807  0.2670 -1.1486
 1613UDC     C417736   3.895  12.144  18.118  0.5639 -0.7809  1.5265
 1613UDC     C517737   4.042  12.133  18.137  0.6880  0.1615 -0.0747
 1613UDC     C617738   4.122  12.197  18.020  0.3692 -0.2649  0.0784
 1613UDC     C717739   4.207  12.091  17.969 -0.1709 -0.0266 -0.4528
 1613UDC     C817740   4.333  12.139  17.900  1.2233 -0.7306  0.1587
 1613UDC     C917741   4.452  12.190  17.968 -0.0076 -0.5246 -1.0385
 1613UDC    C1017742   4.569  12.218  17.873 -0.0561 -0.7557  0.3530
 1613UDC    C1117743   4.588  12.082  17.797 -0.0530  0.1864  0.2340
 1614UDC     C117744   1.895   8.876   9.181 -1.1747  1.0263  1.5892
 1614UDC     C217745   1.983   8.964   9.088 -0.7615  1.0752 -0.9777
 1614UDC     C317746   2.132   8.992   9.128  0.0718  0.0059  0.0420
 1614UDC     C417747   2.239   9.016   9.020  0.4000 -0.1149 -0.2423
 1614UDC     C517748   2.278   8.886   8.943  0.5166 -0.0977  0.2211
 1614UDC     C617749   2.401   8.892   8.869  0.4385  0.6722 -0.2045
 1614UDC     C717750   2.412   8.796   8.749 -0.5742 -0.4952 -0.4598
 1614UDC     C817751   2.566   8.789   8.734  0.3446  0.3576  0.8936
 1614UDC     C917752   2.629   8.683   8.639  0.7654 -0.8115  0.3006
 1614UDC    C1017753   2.691   8.742   8.511 -0.8804 -0.3086  0.5053
 1614UDC    C1117754   2.776   8.656   8.424 -0.4276  0.0067  0.8902
 1615UDC     C117755  10.631   5.709   2.340 -0.6160 -0.1267 -0.8348
 1615UDC     C217756  10.664   5.697   2.190  0.6797 -0.3405 -0.0723
 1615UDC     C317757  10.798   5.746   2.142  0.9602  1.5114  0.2856
 1615UDC     C417758  10.892   5.637   2.092  0.3913  0.6919  0.1352
 1615UDC     C517759  11.020   5.618   2.158  0.2678 -1.0999 -0.9778
 1615UDC     C617760  11.104   5.492   2.108  0.8012  0.1001 -0.0582
 1615UDC     C717761  11.178   5.518   1.968 -0.3796  0.2240  0.9515
 1615UDC     C817762  11.208   5.372   1.914 -1.0129 -0.7793  0.3946
 1615UDC     C917763  11.350   5.310   1.955 -0.1726  0.0518  0.3932
 1615UDC    C1017764  11.456   5.413   1.900 -1.1764  0.0624 -0.2980
 1615UDC    C1117765  11.483   5.406   1.758  0.6477 -0.0368  1.0072
 1616UDC     C117766   5.975   7.926   3.733  0.5556 -0.3428  0.1653
 1616UDC     C217767   5.990   8.043   3.626 -0.7360  0.1201 -0.4449
 1616UDC     C317768   6.119   8.029   3.547 -0.0545  0.8918 -1.3673
 1616UDC     C417769   6.162   8.127   3.434 -1.0836 -0.7424 -0.6004
 1616UDC     C517770   6.131   8.271   3.473 -0.3036 -0.5009  0.2031
 1616UDC     C617771   6.075   8.360   3.358  0.7241 -0.2534  0.2469
 1616UDC     C717772   6.015   8.504   3.386 -0.5495 -0.1604  0.4721
 1616UDC     C817773   5.963   8.582   3.256 -0.5758  0.2576  0.2774
 1616UDC     C917774   5.952   8.734   3.292 -0.4574 -0.6553 -0.2333
 1616UDC    C1017775   5.829   8.812   3.232 -0.7204  0.5622  0.4419
 1616UDC    C1117776   5.842   8.958   3.200  0.4414 -0.6023  0.1788
 1617UDC     C117777   1.007   4.620   8.397 -0.2723 -0.6659 -0.3348
 1617UDC     C217778   0.972   4.711   8.281  0.3316 -0.7056 -0.7066
 1617UDC     C317779   1.059   4.689   8.167 -0.0794  0.1289  0.4589
 1617UDC     C417780   1.195   4.748   8.206 -0.2720  0.1402  0.7881
 1617UDC     C517781   1.314   4.734   8.105  0.0316 -1.1994 -1.3355
 1617UDC     C617782   1.283   4.808   7.971 -0.3456  1.4381  0.8399
 1617UDC     C717783   1.386   4.774   7.868 -0.4028  0.2550  0.2006
 1617UDC     C817784   1.350   4.791   7.718 -0.6471  0.4002 -0.1937
 1617UDC     C917785   1.443   4.715   7.615  1.4452  1.1003 -0.0615
 1617UDC    C1017786   1.593   4.706   7.645 -0.7946 -0.3981  0.1856
 1617UDC    C1117787   1.657   4.843   7.644 -0.0417  0.4640 -0.4236
 1618UDC     C117788   0.094   2.153   5.168 -0.3989  0.4757  0.3746
 1618UDC     C217789   0.019   2.089   5.285  1.4180 -1.1978 -0.1009
 1618UDC     C317790   0.060   1.961   5.344 -0.3097  0.8561  0.3629
 1618UDC     C417791   0.048   1.837   5.250  0.1185 -0.4946  0.1122
 1618UDC     C517792  -0.080   1.766   5.209 -0.0647  0.3165 -0.2751
 1618UDC     C617793  -0.074   1.670   5.096  0.4985  0.3321  0.5652
 1618UDC     C717794  -0.184   1.564   5.080 -0.5142 -0.3009 -0.6532
 1618UDC     C817795  -0.241   1.530   4.941 -0.3448  0.8553  0.1180
 1618UDC     C917796  -0.291   1.385   4.908 -0.8875 -0.3683  0.5286
 1618UDC    C1017797  -0.187   1.272   4.854 -1.2386 -0.9413 -0.2284
 1618UDC    C1117798  -0.244   1.130   4.860 -0.1082 -0.7735 -0.1823
 1619UDC     C117799   6.734  17.909  13.060  0.2925 -0.7791  0.0070
 1619UDC     C217800   6.670  17.928  13.202 -0.3085 -0.8436 -0.3858
 1619UDC     C317801   6.634  18.074  13.237  0.5757  0.2326 -0.3781
 1619UDC     C417802   6.724  18.181  13.185 -0.4290  0.4851 -0.5436
 1619UDC     C517803   6.728  18.316  13.257  0.1518  0.2925 -0.9542
 1619UDC     C617804   6.816  18.409  13.169  0.6643 -0.6909 -0.0675
 1619UDC     C717805   6.826  18.559  13.205 -0.1381 -0.0520  0.3344
 1619UDC     C817806   6.689  18.623  13.219 -0.1482  0.0641  0.1620
 1619UDC     C917807   6.700  18.766  13.281 -0.0893  0.0285  0.5211
 1619UDC    C1017808   6.715  18.868  13.165 -0.2996  1.5001  0.7407
 1619UDC    C1117809   6.700  19.021  13.177  0.8626  0.9590  0.3406
 1620UDC     C117810   2.022   4.736  19.253  0.5478  0.1168 -0.0735
 1620UDC     C217811   1.992   4.702  19.402 -0.6808  0.5032  0.6679
 1620UDC     C317812   1.910   4.571  19.420 -0.6003  0.8768 -0.3087
 1620UDC     C417813   1.916   4.514  19.559  0.2501  0.2531 -0.5186
 1620UDC     C517814   1.775   4.490  19.617 -0.3353  0.3655 -0.0671
 1620UDC     C617815   1.792   4.463  19.769  0.3323 -0.2307 -0.1296
 1620UDC     C717816   1.802   4.321  19.811  0.8966  0.1433 -0.2552
 1620UDC     C817817   1.816   4.331  19.964  0.3385  0.1156  0.2007
 1620UDC     C917818   1.874   4.202  20.021  0.3698  0.9651 -0.8110
 1620UDC    C1017819   2.023   4.197  20.014 -0.2936  0.8508  0.2622
 1620UDC    C1117820   2.059   4.074  20.089  0.0228  0.3064  0.3466
 1621UDC     C117821   7.076  15.566  10.506 -0.3292  0.1569 -0.4623
 1621UDC     C217822   7.002  15.500  10.624  0.2806  0.4417 -0.9679
 1621UDC     C317823   6.864  15.439  10.577 -0.2867 -0.3665 -0.9911
 1621UDC     C417824   6.764  15.550  10.539  0.3158 -2.0896 -0.0722
 1621UDC     C517825   6.625  15.497  10.507 -0.2791  0.8232 -0.2710
 1621UDC     C617826   6.515  15.616  10.512 -0.3201  0.1417  0.0261
 1621UDC     C717827   6.582  15.740  10.588  0.1960  0.3467 -0.7515
 1621UDC     C817828   6.507  15.875  10.569  0.4232  0.5078 -0.9119
 1621UDC     C917829   6.380  15.888  10.650  0.0104 -0.0239 -0.1323
 1621UDC    C1017830   6.292  16.012  10.636  0.2191 -0.0196  1.0001
 1621UDC    C1117831   6.197  16.001  10.752 -0.1823 -0.6099  0.0469
 1622UDC     C117832   3.554  15.650  14.487 -1.8043  0.0004 -0.3703
 1622UDC     C217833   3.696  15.681  14.537  0.8498  1.1390  0.3283
 1622UDC     C317834   3.701  15.696  14.683  0.4367  0.6944 -0.7996
 1622UDC     C417835   3.622  15.813  14.742  0.5899  0.3457 -0.6058
 1622UDC     C517836   3.561  15.789  14.879 -0.1208 -0.6884  0.0005
 1622UDC     C617837   3.473  15.909  14.930  0.9370  0.6623  0.3286
 1622UDC     C717838   3.404  15.900  15.071  0.8887  0.3449  1.1210
 1622UDC     C817839   3.266  15.972  15.086  0.8285 -0.6529  0.4413
 1622UDC     C917840   3.280  16.117  15.146  0.5926 -0.5567  1.0454
 1622UDC    C1017841   3.386  16.121  15.248  0.3978 -0.5018 -0.5882
 1622UDC    C1117842   3.358  16.052  15.380 -0.0140 -0.2910  0.6470
 1623UDC     C117843   4.824  16.578  19.718  0.4238 -0.1771  0.4991
 1623UDC     C217844   4.849  16.621  19.578 -0.7212  1.2983 -0.1841
 1623UDC     C317845   4.855  16.770  19.547  0.5085  0.2176  0.4351
 1623UDC     C417846   4.934  16.847  19.650  0.1098 -0.4203 -0.3172
 1623UDC     C517847   5.047  16.942  19.606  0.8272  0.8993 -0.4420
 1623UDC     C617848   5.143  16.993  19.715  0.8286  0.5266 -0.0751
 1623UDC     C717849   5.100  17.118  19.804  0.1599  0.6895  0.6683
 1623UDC     C817850   5.038  17.251  19.745  0.8540  0.0546  0.6441
 1623UDC     C917851   5.143  17.351  19.684  0.1627 -0.9852  0.0294
 1623UDC    C1017852   5.283  17.292  19.681  0.2761  0.5049  1.9894
 1623UDC    C1117853   5.375  17.383  19.761 -1.2399 -0.3316  0.0503
 1624UDC     C117854   4.157   9.039  12.085 -0.3980 -0.1698 -0.4639
 1624UDC     C217855   4.212   8.898  12.127 -0.1692 -0.1679  0.5175
 1624UDC     C317856   4.187   8.817  11.999  0.1659  0.1541 -0.5000
 1624UDC     C417857   4.248   8.677  11.991  0.8780 -0.3634 -0.6622
 1624UDC     C517858   4.262   8.621  11.852  0.7478  0.1486 -0.8996
 1624UDC     C617859   4.288   8.469  11.856 -0.5955  0.8018  0.5223
 1624UDC     C717860   4.175   8.369  11.904 -0.4976 -1.3146 -0.1485
 1624UDC     C817861   4.173   8.351  12.057  0.0734 -0.0954  0.0655
 1624UDC     C917862   4.035   8.310  12.103  1.0132 -1.4106  1.6016
 1624UDC    C1017863   3.918   8.412  12.073  0.5562  0.4081 -0.0887
 1624UDC    C1117864   3.786   8.375  12.139 -0.8512 -0.3139 -0.2107
 1625UDC     C117865   3.731  12.176   8.575  0.9629  0.5246  0.0651
 1625UDC     C217866   3.762  12.029   8.615  0.5541 -0.5205  0.0846
 1625UDC     C317867   3.794  11.943   8.495 -1.0610  0.1381 -0.9543
 1625UDC     C417868   3.811  11.793   8.533  0.8980 -0.3203 -1.2404
 1625UDC     C517869   3.957  11.743   8.533 -0.0559  0.3425 -0.1933
 1625UDC     C617870   4.039  11.755   8.397  1.0251 -0.7514 -0.5232
 1625UDC     C717871   4.164  11.663   8.427  0.7289 -1.7780 -0.3294
 1625UDC     C817872   4.301  11.655   8.371  0.3989  0.3791 -0.0820
 1625UDC     C917873   4.395  11.562   8.446 -0.3043 -0.1007 -1.2244
 1625UDC    C1017874   4.494  11.492   8.354 -0.2145 -0.0148 -1.4290
 1625UDC    C1117875   4.429  11.465   8.214  0.1822 -0.5167  0.1917
 1626UDC     C117876   6.299   9.132   3.142  0.2641  1.2147  0.7114
 1626UDC     C217877   6.221   9.133   3.013  0.4093  0.1044 -0.2225
 1626UDC     C317878   6.256   9.254   2.924 -1.1217  0.0083 -1.4387
 1626UDC     C417879   6.407   9.257   2.886 -0.6954  0.5832 -0.3512
 1626UDC     C517880   6.445   9.377   2.805 -0.0408 -0.5285 -0.3232
 1626UDC     C617881   6.481   9.496   2.898 -0.5342 -0.0354  0.8309
 1626UDC     C717882   6.533   9.616   2.814 -1.1715  0.4877  0.8541
 1626UDC     C817883   6.662   9.581   2.734 -0.5949 -0.4269  0.1097
 1626UDC     C917884   6.686   9.691   2.630  0.6825  0.5847  0.8290
 1626UDC    C1017885   6.563   9.742   2.549  0.7529  0.8689  0.7462
 1626UDC    C1117886   6.617   9.845   2.442  0.5526  1.3967  0.2656
 1627UDC     C117887  16.879   7.714   2.719  0.3775  0.2291  0.4881
 1627UDC     C217888  16.752   7.673   2.648  1.0727 -0.5853 -0.5843
 1627UDC     C317889  16.636   7.769   2.628 -0.1273 -1.3249  0.2143
 1627UDC     C417890  16.629   7.816   2.778  1.2706  0.5863  0.1368
 1627UDC     C517891  16.507   7.913   2.786  0.3840  0.4895  0.2831
 1627UDC     C617892  16.536   8.051   2.725  0.1769 -0.1855  0.2373
 1627UDC     C717893  16.408   8.140   2.703  0.4901 -0.2207  0.3348
 1627UDC     C817894  16.383   8.190   2.556 -0.0339  0.7575  0.1881
 1627UDC     C917895  16.473   8.110   2.458  0.5421 -0.8644 -0.3282
 1627UDC    C1017896  16.455   8.151   2.310  0.2892  0.2646 -0.1918
 1627UDC    C1117897  16.554   8.094   2.210 -0.9155 -0.1470 -0.9597
 1628UDC     C117898   4.539  16.912  12.422  0.3740  0.1991  0.2949
 1628UDC     C217899   4.433  17.014  12.416  0.9023 -0.6935  0.2740
 1628UDC     C317900   4.344  17.030  12.543 -0.0819  0.6435 -0.5759
 1628UDC     C417901   4.272  16.894  12.560  0.6104  0.0615 -1.0131
 1628UDC     C517902   4.193  16.902  12.698 -0.1662  0.1410  0.5262
 1628UDC     C617903   4.271  16.958  12.823  0.1970 -0.7309  0.2967
 1628UDC     C717904   4.184  16.952  12.952 -0.0459  0.5888 -1.3366
 1628UDC     C817905   4.067  17.048  12.968  0.2118  0.2014  0.0337
 1628UDC     C917906   4.121  17.192  13.002 -1.3930  0.0910  0.1548
 1628UDC    C1017907   4.027  17.302  12.956 -0.4756 -0.1911 -0.6778
 1628UDC    C1117908   3.983  17.307  12.803  0.2370  0.0719 -0.4712
 1629UDC     C117909   9.294   8.775  17.431 -0.1922  0.0221  0.2194
 1629UDC     C217910   9.159   8.710  17.406  0.1281 -0.6179 -1.1341
 1629UDC     C317911   9.094   8.767  17.289  0.3732 -0.5148  0.0795
 1629UDC     C417912   9.139   8.701  17.158  0.7322  0.1268  0.0177
 1629UDC     C517913   9.042   8.760  17.056  0.4462  0.1365  0.3363
 1629UDC     C617914   9.056   8.918  17.032 -0.6097  0.2533 -0.8339
 1629UDC     C717915   9.003   8.953  16.894 -0.0672  1.6143  0.5990
 1629UDC     C817916   9.063   9.086  16.854  0.0191  0.7490 -0.6575
 1629UDC     C917917   9.106   9.168  16.977  0.4046  0.2494 -0.9827
 1629UDC    C1017918   9.193   9.294  16.943 -0.0038  0.1021 -0.1759
 1629UDC    C1117919   9.246   9.382  17.055 -0.8167 -0.0263  0.5597
 1630UDC     C117920  10.905  18.603   3.150  1.2077 -0.1651  1.1865
 1630UDC     C217921  10.774  18.560   3.218  0.1209  1.2142 -0.1781
 1630UDC     C317922  10.672  18.467   3.150 -0.0522 -0.4052  0.3483
 1630UDC     C417923  10.593  18.541   3.037 -0.2947 -0.2860 -0.0149
 1630UDC     C517924  10.490  18.646   3.080  0.3953  1.1878  0.4250
 1630UDC     C617925  10.520  18.794   3.054  0.7342 -0.1206  0.1670
 1630UDC     C717926  10.557  18.851   2.917  0.3533  0.6136  0.1052
 1630UDC     C817927  10.546  18.996   2.894 -0.3365 -0.2648  0.4980
 1630UDC     C917928  10.402  19.046   2.861  0.2780  1.3713  0.5265
 1630UDC    C1017929  10.411  19.197   2.857  0.1000 -0.6405 -0.0211
 1630UDC    C1117930  10.484  19.280   2.963 -0.8663  0.4454 -0.1744
 1631UDC     C117931  11.226  10.832  17.694  0.0949 -0.8237  0.4650
 1631UDC     C217932  11.320  10.958  17.692 -0.2539 -0.0041 -0.8851
 1631UDC     C317933  11.275  11.080  17.785 -0.1089 -0.0978  0.0041
 1631UDC     C417934  11.370  11.205  17.754  0.1282  0.3917  0.8367
 1631UDC     C517935  11.304  11.338  17.804 -0.8218  0.0416  0.1159
 1631UDC     C617936  11.190  11.371  17.700 -0.3574  0.1373  0.3177
 1631UDC     C717937  11.090  11.484  17.713  0.1703  0.1967 -0.5670
 1631UDC     C817938  11.152  11.627  17.697 -0.0883 -0.6886 -0.4315
 1631UDC     C917939  11.044  11.735  17.744 -0.1741  0.1554  0.7425
 1631UDC    C1017940  11.107  11.872  17.779 -1.1865  0.1829  0.6586
 1631UDC    C1117941  11.035  11.990  17.708  0.1111  0.0176 -0.1134
 1632UDC     C117942  12.493  18.559  15.279  0.5635  0.2307  0.3944
 1632UDC     C217943  12.373  18.534  15.376 -1.2530 -0.4466 -0.2332
 1632UDC     C317944  12.412  18.584  15.521 -0.9303  0.6625  0.8583
 1632UDC     C417945  12.290  18.583  15.613 -1.0467 -0.2313  0.1301
 1632UDC     C517946  12.291  18.660  15.743  1.2400 -0.2627  0.3150
 1632UDC     C617947  12.408  18.612  15.826 -0.3502  0.1422 -0.1377
 1632UDC     C717948  12.405  18.602  15.982  0.4559  0.1921 -0.9848
 1632UDC     C817949  12.527  18.550  16.053 -0.4261  0.6012 -1.4480
 1632UDC     C917950  12.537  18.544  16.208 -0.6951 -0.5102  0.1458
 1632UDC    C1017951  12.412  18.483  16.273  0.2055 -0.0612  0.3124
 1632UDC    C1117952  12.407  18.373  16.384  0.5000 -0.3997  0.5380
 1633UDC     C117953   7.208  18.695  19.310  0.7333 -0.5576  0.0846
 1633UDC     C217954   7.061  18.702  19.357  1.3688 -0.5318 -0.3600
 1633UDC     C317955   7.005  18.557  19.365  0.3628 -0.5550  1.2278
 1633UDC     C417956   6.890  18.567  19.467  0.1024 -0.9745 -0.6836
 1633UDC     C517957   6.836  18.436  19.518  1.1244  0.7821 -0.4509
 1633UDC     C617958   6.858  18.407  19.672  0.1409 -0.6663  0.0413
 1633UDC     C717959   6.998  18.429  19.727 -0.1449 -0.8830 -0.7324
 1633UDC     C817960   7.004  18.460  19.880  1.0672 -0.3977 -0.3485
 1633UDC     C917961   6.964  18.612  19.913  0.1518  0.4105 -0.3955
 1633UDC    C1017962   6.940  18.649  20.060  0.1590  0.3491  0.4920
 1633UDC    C1117963   6.807  18.639  20.141 -0.3166 -0.4841 -0.4904
 1634UDC     C117964  19.270   2.351   4.522  0.1943 -0.0418 -0.0846
 1634UDC     C217965  19.300   2.346   4.374 -0.0896  0.1798 -0.0775
 1634UDC     C317966  19.312   2.195   4.317  0.2271 -0.4126  0.5686
 1634UDC     C417967  19.267   2.150   4.172 -0.5204 -1.0375 -0.5711
 1634UDC     C517968  19.236   2.003   4.148 -0.0284 -0.0610 -0.6202
 1634UDC     C617969  19.175   1.964   4.009  0.5227  1.1326  0.0518
 1634UDC     C717970  19.170   1.818   3.968  0.5661  0.4777  0.0260
 1634UDC     C817971  19.303   1.775   3.907  0.0796  0.1827  0.7102
 1634UDC     C917972  19.306   1.623   3.894 -0.7671 -0.3707 -0.4179
 1634UDC    C1017973  19.202   1.572   3.791 -0.3937 -0.0204  0.2528
 1634UDC    C1117974  19.165   1.641   3.661 -0.2160 -1.5357 -0.3765
 1635UDC     C117975   2.338   5.267  17.628  0.8244  0.7329  0.0730
 1635UDC     C217976   2.482   5.239  17.653 -1.0828  0.0996 -0.4231
 1635UDC     C317977   2.541   5.095  17.662 -0.3670 -0.4015  0.7963
 1635UDC     C417978   2.545   5.017  17.530 -0.5525 -1.0714  0.7349
 1635UDC     C517979   2.524   4.866  17.533 -0.4137  0.3321 -0.3987
 1635UDC     C617980   2.430   4.811  17.648 -0.0061 -1.0202  0.5352
 1635UDC     C717981   2.391   4.663  17.638  0.8633 -0.6273  1.2359
 1635UDC     C817982   2.254   4.637  17.701  0.5154  0.1579  1.3180
 1635UDC     C917983   2.197   4.509  17.637 -0.4300  0.0180 -0.8919
 1635UDC    C1017984   2.173   4.535  17.489 -0.2879 -0.0903 -0.5235
 1635UDC    C1117985   2.164   4.424  17.386 -0.4662  0.0676 -0.9457
 1636UDC     C117986   1.154   2.755   7.800  0.5043 -0.2921  0.4441
 1636UDC     C217987   1.032   2.782   7.707 -0.2389  0.2057 -1.1019
 1636UDC     C317988   0.993   2.658   7.627 -0.2509  0.2546 -0.1648
 1636UDC     C417989   0.860   2.672   7.568  1.8050 -0.3710  0.1110
 1636UDC     C517990   0.777   2.548   7.527  0.4450  0.9230 -0.8119
 1636UDC     C617991   0.771   2.459   7.651  0.4468  0.6249  0.2294
 1636UDC     C717992   0.702   2.328   7.644  0.2802  0.0781  0.8789
 1636UDC     C817993   0.786   2.197   7.638 -0.5630  0.1575 -0.4101
 1636UDC     C917994   0.892   2.150   7.739 -0.5464  0.1203  0.8257
 1636UDC    C1017995   0.854   2.049   7.852 -0.0861 -0.5282  0.0225
 1636UDC    C1117996   0.707   2.054   7.891  0.6594 -0.3344 -0.0325
 1637UDC     C117997  12.388  16.700  13.105  0.7052 -0.0765 -0.3228
 1637UDC     C217998  12.274  16.799  13.098  0.8244  0.9195  0.4534
 1637UDC     C317999  12.301  16.924  13.181  0.3289  0.0601 -0.5717
 1637UDC     C418000  12.290  16.924  13.336 -0.0999 -0.0290  0.8732
 1637UDC     C518001  12.385  17.017  13.414 -0.5567  0.3161 -0.1704
 1637UDC     C618002  12.524  16.963  13.437  0.5770 -0.1201 -0.2218
 1637UDC     C718003  12.608  17.072  13.503  0.1869  0.0160 -0.5245
 1637UDC     C818004  12.727  17.023  13.584 -0.8966  0.5531  0.2769
 1637UDC     C918005  12.680  16.926  13.692  0.5259  0.0881 -0.1746
 1637UDC    C1018006  12.799  16.851  13.756 -0.3445  0.5383  0.4123
 1637UDC    C1118007  12.911  16.823  13.654  0.0465  0.2819  0.2928
 1638UDC     C118008  11.982  17.560   3.928 -0.5309 -0.0735 -0.4560
 1638UDC     C218009  12.086  17.532   4.035  0.1166  0.3887 -0.3345
 1638UDC     C318010  12.187  17.644   4.052  0.2832  0.2789  0.5825
 1638UDC     C418011  12.115  17.768   4.120  0.6782 -0.2851 -1.0697
 1638UDC     C518012  12.180  17.906   4.142 -0.4820 -0.5716  0.3861
 1638UDC     C618013  12.298  17.910   4.243  1.0568 -0.2333 -0.1655
 1638UDC     C718014  12.368  18.043   4.285  1.6754 -1.2816 -1.2014
 1638UDC     C818015  12.460  18.015   4.410 -0.9875  0.3420 -0.0444
 1638UDC     C918016  12.545  17.896   4.377 -0.2271  1.1695 -0.3857
 1638UDC    C1018017  12.615  17.862   4.509  1.0193  1.1289  0.1787
 1638UDC    C1118018  12.737  17.767   4.487 -0.3558  0.3585  0.8108
 1639UDC     C118019  18.296   9.628  19.300  0.0682 -0.5048 -0.5792
 1639UDC     C218020  18.276   9.478  19.310 -0.4504  1.3264  0.2264
 1639UDC     C318021  18.139   9.409  19.328  0.0451 -0.4821  0.1102
 1639UDC     C418022  18.128   9.261  19.365  0.3352  0.0048  0.0409
 1639UDC     C518023  18.095   9.165  19.246  0.0819  0.0823 -1.4176
 1639UDC     C618024  18.196   9.062  19.207  0.2157  0.1074 -0.2031
 1639UDC     C718025  18.155   8.942  19.115  0.6262  0.2744  1.0409
 1639UDC     C818026  18.283   8.865  19.084 -0.3480  0.1907 -0.8337
 1639UDC     C918027  18.266   8.752  18.985 -0.4228  0.0305 -0.4386
 1639UDC    C1018028  18.368   8.633  18.973 -0.6646 -0.8470  0.9825
 1639UDC    C1118029  18.300   8.532  18.872  0.0981 -0.1541  0.7093
 1640UDC     C118030   0.962   1.145  18.080  0.9525  0.9921 -0.6921
 1640UDC     C218031   1.094   1.084  18.047 -1.1287  0.2681  0.4405
 1640UDC     C318032   1.109   0.965  17.948 -0.0107  0.7706  0.1090
 1640UDC     C418033   1.079   0.818  17.994  0.2711 -0.0744  0.5302
 1640UDC     C518034   1.133   0.775  18.128 -0.1505  0.6460  0.0378
 1640UDC     C618035   1.133   0.622  18.147 -1.2436  0.3920 -0.1108
 1640UDC     C718036   1.134   0.603  18.301  0.2938 -0.0946 -0.0524
 1640UDC     C818037   0.999   0.627  18.381  0.5598  0.8327 -0.7066
 1640UDC     C918038   0.883   0.543  18.326  0.5945  1.0568  0.0464
 1640UDC    C1018039   0.762   0.522  18.418 -0.8913  0.5527  0.1676
 1640UDC    C1118040   0.677   0.645  18.410  0.8082 -1.4994 -0.0954
 1641UDC     C118041   7.381  16.527   1.004  0.2230 -0.3284 -0.7971
 1641UDC     C218042   7.395  16.392   1.070 -0.9387 -1.1028  0.4203
 1641UDC     C318043   7.331  16.289   0.972 -0.7133 -0.0123 -0.1326
 1641UDC     C418044   7.394  16.146   0.986  0.1233  0.8002 -0.5375
 1641UDC     C518045   7.294  16.034   0.977  0.2240 -0.4446 -0.2263
 1641UDC     C618046   7.342  15.886   0.991  0.4322 -1.5016  0.6041
 1641UDC     C718047   7.482  15.835   0.940  0.2960 -0.3255 -0.4369
 1641UDC     C818048   7.513  15.685   0.963  0.7592 -0.7654  0.0665
 1641UDC     C918049   7.658  15.668   0.919  0.0707  0.5000  0.3829
 1641UDC    C1018050   7.767  15.714   1.020 -0.0600  0.1623 -0.5249
 1641UDC    C1118051   7.909  15.698   0.960 -0.3575 -0.0757 -0.5853
 1642UDC     C118052  13.727   3.023   1.273 -1.2010  0.8695  0.7164
 1642UDC     C218053  13.777   2.964   1.134 -0.9677  1.5166 -0.6544
 1642UDC     C318054  13.699   2.856   1.052 -0.2994 -0.4081  0.2746
 1642UDC     C418055  13.684   2.735   1.151 -0.3294  0.2795 -0.6732
 1642UDC     C518056  13.808   2.644   1.138  0.1601  1.1133  0.1169
 1642UDC     C618057  13.827   2.539   1.028 -1.0636  0.8493 -0.2811
 1642UDC     C718058  13.846   2.387   1.063  0.0408 -0.1521 -0.1285
 1642UDC     C818059  13.712   2.304   1.074 -0.4086 -0.5481  0.4563
 1642UDC     C918060  13.696   2.164   0.998 -0.9041 -0.2002 -0.1574
 1642UDC    C1018061  13.571   2.083   1.007 -0.0523  0.0519  0.9073
 1642UDC    C1118062  13.572   1.980   1.120 -0.2327 -0.6967 -0.6489
 1643UDC     C118063   8.400  12.527  14.435  1.5242 -0.0265 -0.3602
 1643UDC     C218064   8.334  12.389  14.416  0.6838 -0.4077  0.0684
 1643UDC     C318065   8.200  12.359  14.488 -0.2177  0.1207 -1.0794
 1643UDC     C418066   8.083  12.459  14.469 -0.1781  0.3491  0.2188
 1643UDC     C518067   7.961  12.401  14.537 -0.1105  1.3575 -0.9071
 1643UDC     C618068   7.858  12.498  14.594  0.6553  0.5409  0.9271
 1643UDC     C718069   7.714  12.501  14.544  0.4557 -0.5112  0.3123
 1643UDC     C818070   7.622  12.611  14.596  0.6005 -0.6751 -0.6417
 1643UDC     C918071   7.613  12.615  14.754  0.6460  0.1928  1.0430
 1643UDC    C1018072   7.578  12.761  14.784  0.2156 -0.5266 -0.3539
 1643UDC    C1118073   7.470  12.826  14.702  0.8978  0.0640 -0.0023
 1644UDC     C118074  14.155   7.011  13.771  0.3303  1.6542 -0.7269
 1644UDC     C218075  14.022   7.094  13.776  0.8990 -0.6151  0.5879
 1644UDC     C318076  13.935   7.108  13.649  0.1923 -1.0746 -0.2628
 1644UDC     C418077  14.007   7.027  13.544 -0.3448 -0.3016  0.8206
 1644UDC     C518078  13.917   7.005  13.415  0.0625 -0.5975  0.1798
 1644UDC     C618079  13.943   6.867  13.351  0.2177  1.2952 -0.3351
 1644UDC     C718080  13.904   6.755  13.445  0.9409  0.9680 -0.9624
 1644UDC     C818081  13.895   6.628  13.356 -0.1054  0.4103  0.0259
 1644UDC     C918082  13.872   6.496  13.443  0.4217  0.7733  0.0921
 1644UDC    C1018083  13.847   6.528  13.585  1.1676  0.4970  0.4473
 1644UDC    C1118084  13.849   6.407  13.681 -0.2779 -0.1100 -0.8849
 1645UDC     C118085   6.002  14.276  12.835  0.9048  0.0902 -0.0958
 1645UDC     C218086   6.122  14.196  12.899  0.1644 -0.2907  0.3296
 1645UDC     C318087   6.250  14.204  12.815 -0.0833  0.7923 -0.1530
 1645UDC     C418088   6.278  14.097  12.709 -0.1228 -0.2906  0.5030
 1645UDC     C518089   6.428  14.062  12.693  0.0003 -0.7605 -0.5649
 1645UDC     C618090   6.509  14.104  12.817 -0.3564 -0.3294  0.3363
 1645UDC     C718091   6.660  14.077  12.805  0.1450 -1.2553 -0.0665
 1645UDC     C818092   6.713  14.149  12.926  0.1798 -0.9618 -0.5905
 1645UDC     C918093   6.863  14.141  12.927 -0.4366  0.4814 -0.2270
 1645UDC    C1018094   6.930  14.260  13.000  0.0659 -1.0300  0.6237
 1645UDC    C1118095   6.890  14.384  12.923  1.0807 -0.1821 -0.5534
 1646UDC     C118096  19.376  18.169  12.834 -0.8405 -1.3016 -0.2706
 1646UDC     C218097  19.252  18.221  12.906  0.8815 -0.9412 -1.0299
 1646UDC     C318098  19.195  18.364  12.895 -0.2901 -1.2511 -0.5669
 1646UDC     C418099  19.069  18.388  12.979 -0.0282 -0.3168  0.3212
 1646UDC     C518100  18.977  18.501  12.953 -0.1393  0.4007 -1.0873
 1646UDC     C618101  18.926  18.566  13.082 -0.0674  0.2516 -0.4787
 1646UDC     C718102  18.819  18.680  13.060  0.4531  1.1766 -0.4298
 1646UDC     C818103  18.865  18.809  12.988 -0.1339 -0.7676 -0.3662
 1646UDC     C918104  18.966  18.864  13.092 -0.3970 -0.3508 -0.4609
 1646UDC    C1018105  18.887  18.914  13.213  0.4881  0.3491 -0.6689
 1646UDC    C1118106  18.954  18.986  13.331 -0.4561  0.5971 -0.1444
 1647UDC     C118107   6.742  13.345   5.213  0.6935  1.5311  0.8316
 1647UDC     C218108   6.590  13.299   5.190  0.0124  0.3540 -0.1167
 1647UDC     C318109   6.506  13.408   5.121 -0.5826  0.3987  0.6781
 1647UDC     C418110   6.577  13.463   4.994  0.8506 -0.2645 -0.9839
 1647UDC     C518111   6.488  13.463   4.868 -0.7171  0.1401  0.1062
 1647UDC     C618112   6.582  13.490   4.744 -0.5691 -0.9527  0.3915
 1647UDC     C718113   6.530  13.428   4.611 -0.0867  0.3147  0.6984
 1647UDC     C818114   6.613  13.448   4.485  1.3349  0.2757  0.5824
 1647UDC     C918115   6.767  13.444   4.498  1.0367 -0.0733  0.8583
 1647UDC    C1018116   6.834  13.344   4.403 -0.5750 -0.1380 -0.2890
 1647UDC    C1118117   6.977  13.317   4.454 -0.3831  1.3840  0.0701
 1648UDC     C118118   7.717  12.443   1.405  0.3355 -1.1096 -0.0036
 1648UDC     C218119   7.655  12.339   1.506 -0.3929 -0.0844  0.4835
 1648UDC     C318120   7.505  12.372   1.533  0.1945  0.0583 -0.1631
 1648UDC     C418121   7.456  12.261   1.616 -0.0060 -0.2700 -0.1016
 1648UDC     C518122   7.312  12.288   1.655 -0.0169  1.6845  0.4140
 1648UDC     C618123   7.316  12.222   1.792  0.6523 -0.2591  0.3809
 1648UDC     C718124   7.165  12.204   1.853 -0.0225 -0.4191  0.1919
 1648UDC     C818125   7.075  12.321   1.814  0.4308 -0.2580  0.7363
 1648UDC     C918126   6.948  12.289   1.897  0.2421 -0.8208  0.4207
 1648UDC    C1018127   6.951  12.134   1.908 -0.7079  0.2093 -0.1360
 1648UDC    C1118128   6.901  12.077   2.043  0.0818  1.4901  0.1939
 1649UDC     C118129  19.224   9.684  14.204 -0.3723  0.5415 -0.0919
 1649UDC     C218130  19.201   9.532  14.202  1.1144 -0.6075  0.8757
 1649UDC     C318131  19.125   9.471  14.321 -0.4359 -0.9323  0.6061
 1649UDC     C418132  18.984   9.529  14.301 -0.0019  0.1503  0.0375
 1649UDC     C518133  18.877   9.480  14.401  0.4639  0.4156 -0.5785
 1649UDC     C618134  18.850   9.563  14.531 -0.2428  0.0449 -0.4093
 1649UDC     C718135  18.739   9.507  14.628 -0.6731 -0.6558 -0.1293
 1649UDC     C818136  18.595   9.502  14.563 -0.0951  0.2483 -0.2708
 1649UDC     C918137  18.532   9.643  14.564 -0.8593 -1.0746  0.5254
 1649UDC    C1018138  18.377   9.648  14.576  0.3901 -0.6418  0.2689
 1649UDC    C1118139  18.333   9.759  14.681  0.5737 -0.3084  0.9639
 1650UDC     C118140  13.931  18.069  12.320  0.1870  0.2910 -0.0385
 1650UDC     C218141  13.930  18.213  12.382  0.4294 -0.6898  1.2218
 1650UDC     C318142  14.066  18.286  12.394  0.3165 -0.7343 -0.2762
 1650UDC     C418143  14.145  18.285  12.523  0.7905  0.0818 -0.3431
 1650UDC     C518144  14.271  18.373  12.516  0.1658  0.0312  0.4909
 1650UDC     C618145  14.379  18.299  12.430  0.0683  0.0892 -0.9893
 1650UDC     C718146  14.510  18.367  12.395 -0.2126  0.5283  0.4439
 1650UDC     C818147  14.505  18.520  12.384 -0.5431  0.7284 -0.0132
 1650UDC     C918148  14.625  18.610  12.422 -1.2229  0.2171  0.2661
 1650UDC    C1018149  14.616  18.668  12.559 -0.3728 -0.3271  0.7373
 1650UDC    C1118150  14.745  18.751  12.596  0.0606  1.0122  0.4165
 1651UDC     C118151   2.350  14.970  10.880  0.3594  0.6754 -0.4571
 1651UDC     C218152   2.415  15.108  10.839  0.3827 -0.3167 -0.3112
 1651UDC     C318153   2.542  15.118  10.755 -0.2328  0.7143  1.5258
 1651UDC     C418154   2.597  15.262  10.724  0.6956 -0.1909 -1.1814
 1651UDC     C518155   2.520  15.352  10.619  0.6094 -0.1090  0.6070
 1651UDC     C618156   2.506  15.297  10.477 -0.5678 -0.0217 -0.3893
 1651UDC     C718157   2.403  15.376  10.394  0.3033  0.4287  0.5607
 1651UDC     C818158   2.363  15.319  10.254 -0.3754 -0.4603 -0.4094
 1651UDC     C918159   2.437  15.385  10.130 -0.4886  0.5182  0.2873
 1651UDC    C1018160   2.380  15.337   9.997 -0.5510 -0.5017  0.7612
 1651UDC    C1118161   2.223  15.329   9.980  1.0221  0.7183 -0.5954
 1652UDC     C118162   6.363  11.660   4.062 -0.1811 -0.4843 -0.2633
 1652UDC     C218163   6.453  11.536   4.034  0.0499 -0.5077 -0.7989
 1652UDC     C318164   6.583  11.541   3.950 -0.1965 -0.1689 -0.4303
 1652UDC     C418165   6.594  11.599   3.814  0.0849  0.8271  1.4390
 1652UDC     C518166   6.730  11.553   3.773 -1.6848  0.0625  0.2394
 1652UDC     C618167   6.794  11.601   3.645  0.1615 -0.0071  0.2101
 1652UDC     C718168   6.944  11.639   3.669  1.5598 -0.0642 -0.4239
 1652UDC     C818169   6.991  11.725   3.547 -0.8097  0.4992  0.2160
 1652UDC     C918170   7.029  11.658   3.408 -0.0680  0.7653 -0.3064
 1652UDC    C1018171   7.095  11.749   3.309 -1.4229  0.5682 -1.0077
 1652UDC    C1118172   7.156  11.668   3.190  1.2165 -0.5436  0.1813
 1653UDC     C118173  10.505  19.953  17.288 -0.7253  0.7378 -0.5855
 1653UDC     C218174  10.630  19.867  17.342 -0.0533 -0.6365  0.9828
 1653UDC     C318175  10.665  19.884  17.488  1.0108  0.0975 -0.5583
 1653UDC     C418176  10.745  20.016  17.531 -0.1525  1.2119  0.8836
 1653UDC     C518177  10.900  20.004  17.502 -0.4129  0.1779 -0.0276
 1653UDC     C618178  10.988  20.124  17.539  0.0172 -0.0520  0.5114
 1653UDC     C718179  10.933  20.260  17.484  0.2134 -0.1532 -1.5455
 1653UDC     C818180  10.913  20.254  17.332  0.4294 -0.0463 -0.7138
 1653UDC     C918181  11.032  20.312  17.253 -0.4415  0.2116 -0.0804
 1653UDC    C1018182  11.129  20.205  17.196  0.1050  0.1968 -0.3076
 1653UDC    C1118183  11.152  20.226  17.047 -0.0280 -1.0426  0.4282
 1654UDC     C118184  15.642   2.010  19.683  1.2191  0.1231  0.7789
 1654UDC     C218185  15.509   1.925  19.666 -0.5964 -0.7420  0.8776
 1654UDC     C318186  15.509   1.772  19.641 -0.2191 -0.1316  0.0083
 1654UDC     C418187  15.541   1.684  19.763  0.8773  0.1713 -0.1643
 1654UDC     C518188  15.458   1.744  19.882  0.0606  0.8396  0.4589
 1654UDC     C618189  15.457   1.659  20.013  0.0777  0.0810  0.8043
 1654UDC     C718190  15.326   1.705  20.086  0.5442 -0.0900  0.2733
 1654UDC     C818191  15.179   1.699  20.035 -0.6761 -0.7708  0.0728
 1654UDC     C918192  15.100   1.829  20.031 -0.1655 -0.3927  0.1840
 1654UDC    C1018193  15.118   1.923  20.159 -0.3456 -0.0729 -0.8472
 1654UDC    C1118194  15.042   2.064  20.153 -0.5494  1.3842 -0.6492
 1655UDC     C118195  15.012   9.513   2.114  0.7342  0.1112  0.1972
 1655UDC     C218196  14.986   9.614   2.216 -1.3288 -0.6613  0.1928
 1655UDC     C318197  14.835   9.635   2.236  0.2682  0.7795 -1.0152
 1655UDC     C418198  14.742   9.508   2.260 -0.4514 -1.1158  0.6162
 1655UDC     C518199  14.595   9.540   2.259  0.3169 -0.4563 -0.5300
 1655UDC     C618200  14.499   9.421   2.218  0.1572  0.6810  0.5782
 1655UDC     C718201  14.533   9.290   2.290 -0.0974 -0.2177  0.0785
 1655UDC     C818202  14.479   9.173   2.200  0.6525 -0.8841  0.0930
 1655UDC     C918203  14.349   9.194   2.113  0.1655  0.1507 -0.2275
 1655UDC    C1018204  14.223   9.210   2.199  0.3079 -0.7810  0.2076
 1655UDC    C1118205  14.093   9.137   2.159 -0.3409 -0.4577 -0.3594
 1656UDC     C118206   8.763   9.308   1.653  0.0202 -1.5990 -0.0971
 1656UDC     C218207   8.901   9.278   1.582 -0.0776  0.4893 -0.8130
 1656UDC     C318208   9.023   9.233   1.675 -0.3242 -0.2564  0.1447
 1656UDC     C418209   9.114   9.342   1.726  0.4145  0.1181 -0.2147
 1656UDC     C518210   9.205   9.283   1.840  0.3371 -0.0467  0.1289
 1656UDC     C618211   9.319   9.373   1.871 -0.4657  1.0219  0.0082
 1656UDC     C718212   9.459   9.337   1.930  0.5367  0.6613  0.8766
 1656UDC     C818213   9.544   9.471   1.909  0.5312  0.5061 -0.4141
 1656UDC     C918214   9.606   9.524   2.036 -0.2765  0.2362 -0.9277
 1656UDC    C1018215   9.655   9.663   2.039  0.7258 -0.8619  0.1934
 1656UDC    C1118216   9.714   9.696   2.175 -0.9015  0.0675 -0.1194
 1657UDC     C118217   9.068  14.146   8.066  0.9842  1.2469 -0.5914
 1657UDC     C218218   9.131  14.281   8.073  0.6878 -0.7674 -0.9056
 1657UDC     C318219   9.258  14.294   7.991  0.2262  0.6587  0.8157
 1657UDC     C418220   9.217  14.257   7.849 -0.3096 -1.0401  0.4971
 1657UDC     C518221   9.217  14.388   7.767 -1.8202  0.7284 -0.4222
 1657UDC     C618222   9.201  14.352   7.616  0.1565 -0.2040 -0.0830
 1657UDC     C718223   9.179  14.493   7.548  0.7783 -0.4247  0.5541
 1657UDC     C818224   9.283  14.532   7.440  0.9407 -1.0750  0.5700
 1657UDC     C918225   9.261  14.520   7.288  0.5003 -0.1467 -0.1276
 1657UDC    C1018226   9.392  14.552   7.214 -0.0470  0.8069 -0.2173
 1657UDC    C1118227   9.403  14.509   7.069 -0.3829 -0.3969  0.4897
 1658UDC     C118228  17.934   3.895  19.927  0.7819 -1.1584 -0.0344
 1658UDC     C218229  17.998   3.828  19.807 -0.3187  0.6695 -1.0801
 1658UDC     C318230  17.897   3.799  19.696  1.1562  0.3070  0.4807
 1658UDC     C418231  17.910   3.842  19.551  0.8279  0.2020  0.8720
 1658UDC     C518232  17.967   3.982  19.537 -1.4590 -0.2190  0.3040
 1658UDC     C618233  17.929   4.046  19.402 -0.2493  1.1739  0.3597
 1658UDC     C718234  17.932   4.199  19.404  0.6018  0.4815  0.2813
 1658UDC     C818235  18.059   4.289  19.405 -1.0550  0.0364  0.4254
 1658UDC     C918236  18.007   4.428  19.421  0.4120 -0.2722  0.1748
 1658UDC    C1018237  18.102   4.529  19.363 -0.2845 -0.3406  0.1575
 1658UDC    C1118238  18.111   4.520  19.211 -0.1217  0.4250  0.5418
 1659UDC     C118239   4.273   0.579   4.143  1.3082 -0.0015 -0.0606
 1659UDC     C218240   4.142   0.513   4.180 -0.5106 -0.5749  0.1039
 1659UDC     C318241   4.053   0.475   4.059 -0.0531 -1.3247 -0.0188
 1659UDC     C418242   3.932   0.399   4.120 -0.8282 -0.6136 -0.1391
 1659UDC     C518243   3.840   0.490   4.201  0.9185 -1.7451 -0.1102
 1659UDC     C618244   3.706   0.445   4.256 -0.2189 -0.1050 -0.0571
 1659UDC     C718245   3.654   0.511   4.383  0.0710 -0.5758  0.4132
 1659UDC     C818246   3.763   0.580   4.464 -0.4951 -0.9188 -0.7802
 1659UDC     C918247   3.692   0.699   4.538  0.3301 -0.7679  0.9618
 1659UDC    C1018248   3.748   0.744   4.670 -0.6246 -0.1333 -0.5547
 1659UDC    C1118249   3.714   0.687   4.812 -1.5326 -0.6348  0.5657
 1660UDC     C118250   7.286  11.413   8.520 -0.6549  0.8994 -1.3072
 1660UDC     C218251   7.306  11.534   8.428  0.3379  0.8035 -0.6922
 1660UDC     C318252   7.304  11.453   8.299 -0.0668 -0.9921  0.5102
 1660UDC     C418253   7.265  11.507   8.160  0.1444 -0.7264  0.9043
 1660UDC     C518254   7.226  11.397   8.061  0.2333  0.2320 -0.2999
 1660UDC     C618255   7.097  11.321   8.106 -0.2393  0.8761 -0.6698
 1660UDC     C718256   7.076  11.179   8.053  0.1477  0.1591 -0.7562
 1660UDC     C818257   6.934  11.126   8.090 -0.4313 -0.7001  0.1459
 1660UDC     C918258   6.903  10.976   8.085 -0.2702  0.7303 -0.2326
 1660UDC    C1018259   6.791  10.941   8.187  1.0797  0.3922  0.2991
 1660UDC    C1118260   6.659  11.003   8.162  0.6599  0.1296 -0.4531
 1661UDC     C118261  18.269   1.815   6.870 -0.2730 -0.0810  0.1730
 1661UDC     C218262  18.118   1.817   6.896  0.4505  0.1692 -0.0506
 1661UDC     C318263  18.096   1.764   7.038 -0.3603  0.2236 -1.1720
 1661UDC     C418264  18.147   1.850   7.151 -0.0156  1.0586 -0.7223
 1661UDC     C518265  18.227   1.771   7.255 -0.0320  0.2815 -0.4676
 1661UDC     C618266  18.309   1.655   7.189 -0.1628  0.3218  0.9778
 1661UDC     C718267  18.319   1.525   7.275  0.0605  0.3002 -1.1189
 1661UDC     C818268  18.375   1.410   7.188  0.2938 -0.1810  0.0705
 1661UDC     C918269  18.434   1.275   7.243  0.7991 -0.1333 -0.9028
 1661UDC    C1018270  18.567   1.268   7.323  0.5259 -0.0375  0.3195
 1661UDC    C1118271  18.579   1.144   7.415 -0.5888  0.7860 -0.2888
 1662UDC     C118272  11.938  12.699  16.429  0.1053 -0.2795  0.2809
 1662UDC     C218273  11.978  12.575  16.349  0.3453  0.0509  0.8589
 1662UDC     C318274  12.062  12.600  16.225 -1.0841 -0.1605 -0.2801
 1662UDC     C418275  12.100  12.472  16.148 -1.1826  0.8946 -0.0512
 1662UDC     C518276  11.997  12.379  16.081 -0.2235 -0.0570 -0.9345
 1662UDC     C618277  11.917  12.452  15.964 -0.4747  0.9543 -1.0756
 1662UDC     C718278  11.848  12.373  15.856  0.5224  0.0220  0.0638
 1662UDC     C818279  11.776  12.459  15.748 -0.0644 -0.0699 -0.2098
 1662UDC     C918280  11.656  12.403  15.665  0.1823  0.3141 -0.2134
 1662UDC    C1018281  11.547  12.344  15.750  0.0576  0.1591  0.2195
 1662UDC    C1118282  11.420  12.298  15.677 -0.7097  0.8033  0.1504
 1663UDC     C118283   7.463  14.055   5.442 -0.5206 -1.4078  1.1169
 1663UDC     C218284   7.549  13.931   5.450  0.9776  0.1481  0.6411
 1663UDC     C318285   7.453  13.815   5.418  0.0662  0.3037  0.7434
 1663UDC     C418286   7.526  13.674   5.430  0.3762 -1.1915  0.1229
 1663UDC     C518287   7.639  13.649   5.331  0.5895 -0.4491  0.4169
 1663UDC     C618288   7.698  13.522   5.362 -0.7840 -0.0491 -0.8223
 1663UDC     C718289   7.827  13.481   5.275  0.0145  1.1449 -0.2661
 1663UDC     C818290   7.816  13.422   5.126 -0.2017 -0.6179 -0.7465
 1663UDC     C918291   7.938  13.402   5.024  0.8034 -0.7635  0.4427
 1663UDC    C1018292   7.916  13.311   4.900  0.4877  0.0542 -0.1608
 1663UDC    C1118293   8.034  13.220   4.863 -0.1786  0.2588  0.3021
 1664UDC     C118294   8.833  13.737  15.969  0.1250 -0.0774 -0.0732
 1664UDC     C218295   8.770  13.776  16.105  0.4066 -0.0909  0.6404
 1664UDC     C318296   8.704  13.645  16.140 -0.2720 -0.1947  0.0376
 1664UDC     C418297   8.782  13.536  16.218  1.3721  0.7664  0.4723
 1664UDC     C518298   8.803  13.408  16.128  0.2110 -0.5105  0.7883
 1664UDC     C618299   8.685  13.315  16.129  0.8268 -0.5526  0.0560
 1664UDC     C718300   8.658  13.249  15.991 -0.4706 -0.7772  0.1708
 1664UDC     C818301   8.563  13.134  15.995  0.1740 -0.0542 -0.0363
 1664UDC     C918302   8.411  13.162  15.993 -0.1385  0.0774  0.5641
 1664UDC    C1018303   8.322  13.043  15.965 -0.4402 -0.3605  0.1442
 1664UDC    C1118304   8.178  13.081  15.928 -0.2016 -0.6582  0.8485
 1665UDC     C118305  14.618   6.550   8.654  0.7928 -0.1079  1.1802
 1665UDC     C218306  14.690   6.550   8.519 -0.4127 -0.6270 -0.6216
 1665UDC     C318307  14.841   6.531   8.569  0.8476  0.1517  0.0375
 1665UDC     C418308  14.884   6.592   8.705 -0.2047  0.0939 -0.2541
 1665UDC     C518309  15.032   6.560   8.728  0.7237  0.1890 -0.3065
 1665UDC     C618310  15.129   6.627   8.630 -0.0834  0.5999  0.6678
 1665UDC     C718311  15.128   6.778   8.657  0.3947  0.2123 -0.2952
 1665UDC     C818312  15.260   6.837   8.601  0.3220 -0.3446 -0.4549
 1665UDC     C918313  15.236   6.983   8.572  0.5367 -0.3211 -0.1301
 1665UDC    C1018314  15.340   7.055   8.496  0.0621  0.6364  0.1445
 1665UDC    C1118315  15.299   7.203   8.484  0.8031 -0.4300 -0.1230
 1666UDC     C118316  13.447  11.222   7.795  0.5221 -0.1750  1.0811
 1666UDC     C218317  13.454  11.068   7.771 -0.2807 -0.3195 -0.2001
 1666UDC     C318318  13.447  11.017   7.622  0.1047 -0.2809  0.0010
 1666UDC     C418319  13.480  10.864   7.589  0.1791  0.0725 -0.4538
 1666UDC     C518320  13.417  10.836   7.449 -0.3140  0.3546 -0.0793
 1666UDC     C618321  13.284  10.763   7.479 -0.4945 -0.1556 -0.3733
 1666UDC     C718322  13.215  10.685   7.368 -0.4306  1.2704  0.3216
 1666UDC     C818323  13.109  10.599   7.440  0.2860  0.1115 -0.4933
 1666UDC     C918324  13.176  10.466   7.483  0.2317 -0.7721  0.6358
 1666UDC    C1018325  13.076  10.351   7.489 -0.3358  0.1126 -0.3148
 1666UDC    C1118326  12.981  10.338   7.365  0.5214 -0.9407  0.8138
 1667UDC     C118327  18.285  13.980  19.626  0.2387  0.0367 -0.0283
 1667UDC     C218328  18.234  13.956  19.477  0.2803  0.2651  0.6570
 1667UDC     C318329  18.345  13.876  19.403  0.7902 -1.0383 -0.1010
 1667UDC     C418330  18.319  13.848  19.254  0.2718  0.1807  0.7681
 1667UDC     C518331  18.381  13.730  19.173  0.0446  0.1910  1.0205
 1667UDC     C618332  18.383  13.767  19.024  0.5505  0.0081  0.1146
 1667UDC     C718333  18.469  13.699  18.913 -0.4619 -0.1892  0.2742
 1667UDC     C818334  18.614  13.748  18.924 -0.7280  0.5768 -0.6662
 1667UDC     C918335  18.717  13.678  18.837 -0.1859 -0.0348  1.0653
 1667UDC    C1018336  18.801  13.591  18.930 -0.4158 -0.2361  1.2466
 1667UDC    C1118337  18.855  13.655  19.063  0.2816 -0.2584  0.1297
 1668UDC     C118338   6.071  17.170  14.969 -0.2732 -0.6162  0.0176
 1668UDC     C218339   6.046  17.233  14.831 -0.3856 -1.3118 -0.6001
 1668UDC     C318340   5.968  17.364  14.850  0.3811  0.0401 -0.9488
 1668UDC     C418341   5.835  17.347  14.918 -0.0607 -0.9471 -0.0626
 1668UDC     C518342   5.785  17.440  15.029  0.7099  0.0806 -0.7086
 1668UDC     C618343   5.716  17.344  15.124  1.0240 -0.2915 -0.6906
 1668UDC     C718344   5.809  17.250  15.210  1.3725 -0.2488  0.1147
 1668UDC     C818345   5.760  17.210  15.348  1.1019  0.3419  0.7026
 1668UDC     C918346   5.619  17.141  15.359 -0.4750  1.0355  0.0106
 1668UDC    C1018347   5.586  17.093  15.501 -0.9323 -0.7620  0.3496
 1668UDC    C1118348   5.516  17.197  15.581  0.5157  1.1207 -0.5218
 1669UDC     C118349  10.296  13.466  13.497  0.2341  0.6181  0.3599
 1669UDC     C218350  10.255  13.498  13.351  0.4010  0.2278  0.5526
 1669UDC     C318351  10.109  13.562  13.342  0.9156  0.1038  0.2840
 1669UDC     C418352  10.092  13.698  13.417 -0.8638 -0.0874  0.2019
 1669UDC     C518353   9.951  13.757  13.427  0.0805  0.1722  0.2743
 1669UDC     C618354   9.929  13.895  13.352 -0.6385 -1.0612 -0.5054
 1669UDC     C718355   9.787  13.938  13.383 -0.4558  0.4480 -0.1241
 1669UDC     C818356   9.710  13.820  13.321  0.3674  0.6289 -0.5345
 1669UDC     C918357   9.551  13.834  13.311 -1.4515  0.5688 -0.1331
 1669UDC    C1018358   9.527  13.823  13.163  0.4949  0.4130 -0.6668
 1669UDC    C1118359   9.383  13.824  13.111  0.0262  0.0664  0.6813
 1670UDC     C118360   1.226   0.089   5.541  0.4629  0.0979  0.9614
 1670UDC     C218361   1.324  -0.034   5.533  0.2369  1.2356  0.4390
 1670UDC     C318362   1.303  -0.124   5.413 -0.0681  0.4927 -1.1829
 1670UDC     C418363   1.359  -0.050   5.293  0.6610 -0.0046 -0.4484
 1670UDC     C518364   1.503  -0.033   5.254 -0.4353  0.4808  1.0615
 1670UDC     C618365   1.530   0.099   5.183 -0.4820 -0.7167 -0.2544
 1670UDC     C718366   1.660   0.107   5.104 -1.4020 -0.1030  0.5903
 1670UDC     C818367   1.685   0.048   4.968  0.7054 -0.6095  0.5061
 1670UDC     C918368   1.830   0.041   4.936 -0.4624 -0.4947 -0.2019
 1670UDC    C1018369   1.911   0.170   4.951 -1.1188 -0.1349  1.1295
 1670UDC    C1118370   2.051   0.176   4.896 -0.4712 -0.3578  0.2080
 1671UDC     C118371  13.822  16.481   4.861 -0.9252 -0.3669  0.3094
 1671UDC     C218372  13.719  16.555   4.942  0.0022 -1.0265 -0.4077
 1671UDC     C318373  13.741  16.704   4.973 -0.2991 -0.5086 -0.1107
 1671UDC     C418374  13.637  16.798   5.041 -0.6770 -0.1472  0.8479
 1671UDC     C518375  13.686  16.941   5.030 -0.8344 -0.0732  0.9167
 1671UDC     C618376  13.826  16.966   5.089  0.1483 -0.1746  1.0595
 1671UDC     C718377  13.878  17.109   5.078 -0.1578  0.0944  0.5427
 1671UDC     C818378  14.017  17.114   5.022 -0.0927 -0.0648 -0.3709
 1671UDC     C918379  14.080  17.252   5.006 -0.1185 -0.9311 -0.5268
 1671UDC    C1018380  14.201  17.283   5.100 -0.3685 -0.0034 -0.1956
 1671UDC    C1118381  14.244  17.428   5.081  0.3635  0.4531 -1.1977
 1672UDC     C118382   8.874  11.369  16.554  0.4013 -0.8438 -0.1060
 1672UDC     C218383   8.859  11.237  16.627  0.3776 -0.1885 -0.1950
 1672UDC     C318384   8.985  11.145  16.600  0.8098  0.1767 -0.6912
 1672UDC     C418385   8.993  11.010  16.676  0.8109 -1.0599  1.3921
 1672UDC     C518386   9.031  11.025  16.823 -0.4970 -0.4042  0.4394
 1672UDC     C618387   9.153  11.116  16.824  0.4528 -0.5819  0.1515
 1672UDC     C718388   9.197  11.172  16.963 -0.7215  0.7346  0.5311
 1672UDC     C818389   9.287  11.300  16.937 -0.3311  0.5623 -0.6164
 1672UDC     C918390   9.337  11.384  17.049  0.1965 -0.3275 -0.2067
 1672UDC    C1018391   9.413  11.503  16.990 -1.0155 -1.3220  0.1430
 1672UDC    C1118392   9.495  11.564  17.102  1.1696  0.9036 -1.6673
 1673UDC     C118393   8.848   0.725   8.358  0.7872  1.3509  0.2082
 1673UDC     C218394   8.848   0.744   8.207 -0.4652  0.3334 -0.0768
 1673UDC     C318395   8.909   0.633   8.121  0.3100  0.1809 -0.0274
 1673UDC     C418396   8.810   0.519   8.131 -0.4223 -0.5958 -0.3500
 1673UDC     C518397   8.878   0.387   8.079 -0.4640 -1.1688 -0.2841
 1673UDC     C618398   9.002   0.344   8.169  0.2635 -0.4070  0.8309
 1673UDC     C718399   9.108   0.267   8.077  0.2110  0.5305 -0.1040
 1673UDC     C818400   9.062   0.125   8.015  0.0997 -0.7231 -0.0024
 1673UDC     C918401   9.046   0.025   8.131 -0.1096 -0.1244  0.4579
 1673UDC    C1018402   9.175   0.011   8.228  0.2125 -0.8477  0.4132
 1673UDC    C1118403   9.145  -0.005   8.369  0.2713 -0.4167 -0.4357
 1674UDC     C118404   8.781   5.970   1.336 -1.0708 -0.2221 -0.0389
 1674UDC     C218405   8.764   6.043   1.475  1.0008  0.4515  0.4157
 1674UDC     C318406   8.706   6.187   1.476  0.2579 -0.0936 -0.2579
 1674UDC     C418407   8.693   6.259   1.341 -0.0356 -0.4584 -2.1062
 1674UDC     C518408   8.594   6.379   1.353 -0.1351  0.2276 -0.7540
 1674UDC     C618409   8.574   6.454   1.222  0.7288  0.0452 -0.2061
 1674UDC     C718410   8.568   6.605   1.237  0.1306 -0.0036  0.8207
 1674UDC     C818411   8.657   6.656   1.356  0.2353 -0.3009  0.7774
 1674UDC     C918412   8.707   6.804   1.328  0.1313 -0.2445 -0.6498
 1674UDC    C1018413   8.771   6.806   1.190  0.6853 -0.9905 -0.0122
 1674UDC    C1118414   8.909   6.757   1.198  0.3067  0.1467  0.5655
 1675UDC     C118415   4.276  16.999   3.412  0.5415  0.4201  0.7554
 1675UDC     C218416   4.312  17.150   3.398  0.4880  1.1484  0.6174
 1675UDC     C318417   4.323  17.197   3.251  0.1222  0.4282  0.1158
 1675UDC     C418418   4.466  17.180   3.193 -1.0744  0.3292  0.4844
 1675UDC     C518419   4.574  17.255   3.265 -0.4519 -1.1336  0.6208
 1675UDC     C618420   4.696  17.244   3.170  0.0716 -2.3891  0.5323
 1675UDC     C718421   4.675  17.287   3.024  0.3240 -0.3329 -0.4032
 1675UDC     C818422   4.794  17.233   2.936 -0.7971 -0.2172 -0.5530
 1675UDC     C918423   4.777  17.215   2.790  0.8298  1.2863  0.6470
 1675UDC    C1018424   4.641  17.141   2.773 -0.0463  0.3556  0.0817
 1675UDC    C1118425   4.611  17.088   2.632 -1.1124  0.2859  1.3014
 1676UDC     C118426  17.851   7.821   7.427 -0.0064  0.0930  0.2785
 1676UDC     C218427  17.872   7.868   7.570 -0.2139 -0.4443 -0.5706
 1676UDC     C318428  17.849   8.021   7.603 -0.3910  0.4181 -0.3148
 1676UDC     C418429  17.865   8.068   7.757  1.5388 -0.6873  1.0200
 1676UDC     C518430  17.771   8.005   7.857  0.0200  0.5175 -0.5285
 1676UDC     C618431  17.765   7.844   7.875  0.2037  0.3494  0.3839
 1676UDC     C718432  17.907   7.807   7.922  0.1751 -0.1764  0.2316
 1676UDC     C818433  17.936   7.654   7.923 -0.8692 -0.1114 -1.0741
 1676UDC     C918434  18.079   7.610   7.968 -0.2409 -0.8290 -0.7802
 1676UDC    C1018435  18.078   7.621   8.120 -0.3201 -0.0696  0.8316
 1676UDC    C1118436  18.184   7.532   8.180 -0.0484  0.3654  0.1891
 1677UDC     C118437  13.216   6.907   3.638  0.3340  0.3436  0.3647
 1677UDC     C218438  13.177   6.985   3.761 -0.0821  0.5134 -0.8507
 1677UDC     C318439  13.258   6.944   3.882 -0.2537  0.0857 -0.1254
 1677UDC     C418440  13.198   6.806   3.923  0.2870 -0.9627  0.2310
 1677UDC     C518441  13.055   6.800   3.977 -0.7625 -0.4781 -0.3122
 1677UDC     C618442  13.022   6.691   4.072  1.4254  0.4625 -0.3433
 1677UDC     C718443  13.006   6.550   3.994 -0.5616 -1.0975 -0.3565
 1677UDC     C818444  12.858   6.495   3.979  0.5296 -0.0910  0.2692
 1677UDC     C918445  12.826   6.395   3.865  0.0003 -0.1265  0.3162
 1677UDC    C1018446  12.921   6.272   3.862  0.1001  0.2326  0.0179
 1677UDC    C1118447  12.923   6.198   3.735  1.4211 -0.6158 -0.1530
 1678UDC     C118448   1.021  16.649   3.580  0.6590  0.6773  0.0449
 1678UDC     C218449   1.019  16.645   3.425 -1.5327 -0.4318  0.1425
 1678UDC     C318450   1.088  16.747   3.340 -1.0993 -0.3623 -0.3837
 1678UDC     C418451   1.037  16.884   3.379 -0.5949 -0.7941 -0.9363
 1678UDC     C518452   0.882  16.887   3.370 -0.2198  0.1034 -0.0920
 1678UDC     C618453   0.822  17.027   3.380 -0.1698 -0.4716  0.0558
 1678UDC     C718454   0.810  17.092   3.242  0.3650 -0.1849  0.3682
 1678UDC     C818455   0.784  17.240   3.270  0.7856 -0.5346 -0.9546
 1678UDC     C918456   0.792  17.356   3.169  0.0495  0.2808 -1.2036
 1678UDC    C1018457   0.675  17.344   3.067  0.9260  0.6019  0.0533
 1678UDC    C1118458   0.535  17.391   3.115  0.3528 -0.3124 -0.0959
 1679UDC     C118459  11.009   2.482   4.741 -0.9981  0.0822  0.2010
 1679UDC     C218460  11.159   2.510   4.735 -0.5081  0.6418 -0.3156
 1679UDC     C318461  11.187   2.654   4.722 -0.2749 -0.6012 -0.3127
 1679UDC     C418462  11.137   2.718   4.595 -0.8751  0.0587  1.1448
 1679UDC     C518463  11.227   2.691   4.474  0.8654 -0.2750 -0.1476
 1679UDC     C618464  11.148   2.736   4.352 -0.2834  0.1762 -0.5097
 1679UDC     C718465  11.064   2.617   4.301 -0.8223 -0.2248  0.0850
 1679UDC     C818466  10.942   2.676   4.252 -0.4906  0.8097  0.0194
 1679UDC     C918467  10.824   2.577   4.257 -0.1195 -0.0786 -0.1352
 1679UDC    C1018468  10.725   2.598   4.369  0.0930 -0.5750 -0.4961
 1679UDC    C1118469  10.610   2.494   4.367  0.6059  1.4587 -1.2784
 1680UDC     C118470  10.730   6.756  15.548  0.1138 -0.6841  0.0502
 1680UDC     C218471  10.708   6.619  15.604  0.8226  0.8765  0.6665
 1680UDC     C318472  10.800   6.584  15.716 -0.9557  0.1495  0.3945
 1680UDC     C418473  10.775   6.453  15.791  0.9820  0.3378 -0.3931
 1680UDC     C518474  10.888   6.345  15.756 -0.1583 -0.0880  0.5436
 1680UDC     C618475  10.844   6.202  15.777 -0.0028  0.1136  0.7720
 1680UDC     C718476  10.828   6.166  15.923 -0.1513 -0.3863  0.5650
 1680UDC     C818477  10.819   6.013  15.940  0.1729 -0.9048  0.4536
 1680UDC     C918478  10.748   5.955  16.061 -0.2751 -0.0064  0.0147
 1680UDC    C1018479  10.809   5.980  16.203 -0.2116 -0.7298 -0.1127
 1680UDC    C1118480  10.755   5.885  16.310 -0.4982  0.1418 -0.0824
 1681UDC     C118481  18.955   7.400  10.217 -1.0587 -0.1556 -0.9976
 1681UDC     C218482  19.071   7.386  10.317 -0.6457 -0.1724 -0.1213
 1681UDC     C318483  19.197   7.366  10.241  0.3889  0.2123  0.9588
 1681UDC     C418484  19.265   7.229  10.207  0.5023 -1.0463 -0.3021
 1681UDC     C518485  19.329   7.182  10.340  0.8265 -0.0049 -0.6538
 1681UDC     C618486  19.259   7.054  10.405  0.3997 -0.3363  0.2436
 1681UDC     C718487  19.281   6.915  10.336  0.3483  0.4440  0.2357
 1681UDC     C818488  19.165   6.818  10.375 -0.5955 -0.0889  0.2875
 1681UDC     C918489  19.160   6.792  10.528 -0.8540 -0.3127  0.0375
 1681UDC    C1018490  19.276   6.721  10.588 -0.5474 -0.1626  0.1311
 1681UDC    C1118491  19.283   6.573  10.557 -0.5754  0.8392 -0.2194
 1682UDC     C118492   0.645   7.171   1.955  0.6194  0.1085  0.6635
 1682UDC     C218493   0.680   7.308   2.000  0.4024 -1.0324  0.0776
 1682UDC     C318494   0.803   7.330   2.093  0.4338  0.5776  0.0910
 1682UDC     C418495   0.814   7.480   2.137  0.5876 -1.1727  0.4345
 1682UDC     C518496   0.817   7.473   2.291 -0.5640 -0.3767  0.6512
 1682UDC     C618497   0.857   7.609   2.353  0.7518  0.4849  0.9748
 1682UDC     C718498   0.890   7.595   2.503  0.8385  1.0416 -0.5671
 1682UDC     C818499   0.902   7.718   2.589  0.2903  0.1732 -0.6515
 1682UDC     C918500   0.777   7.745   2.672  0.2579 -0.5607 -0.1865
 1682UDC    C1018501   0.663   7.808   2.588 -0.0726  0.7166  0.1307
 1682UDC    C1118502   0.516   7.805   2.656  0.1167  0.9181 -0.5434
 1683UDC     C118503   0.736   9.769   3.431 -0.2351  0.9681  0.0849
 1683UDC     C218504   0.707   9.765   3.278  0.5042 -0.8629 -0.3181
 1683UDC     C318505   0.657   9.888   3.201  0.9031 -0.2257 -0.7437
 1683UDC     C418506   0.720   9.891   3.055 -0.7662 -0.0633  0.5996
 1683UDC     C518507   0.752  10.031   2.994  0.1357  0.3389  1.3629
 1683UDC     C618508   0.805  10.029   2.853 -0.3612  0.2164 -0.5588
 1683UDC     C718509   0.800  10.179   2.805 -0.2888 -0.1532  0.0631
 1683UDC     C818510   0.877  10.261   2.908 -0.4410 -0.0781  0.9226
 1683UDC     C918511   0.863  10.415   2.899 -0.6557 -0.6326 -0.5787
 1683UDC    C1018512   0.719  10.454   2.902 -0.0544  0.6704  0.1459
 1683UDC    C1118513   0.703  10.603   2.880 -0.4499 -0.3852 -0.6300
 1684UDC     C118514   6.212  10.150  10.550 -0.7716  0.3492 -0.1305
 1684UDC     C218515   6.171  10.284  10.633  0.0946 -0.3402  0.3459
 1684UDC     C318516   6.028  10.327  10.635  1.2167  0.5606  1.3170
 1684UDC     C418517   6.007  10.455  10.720 -1.3433 -0.6807  0.5441
 1684UDC     C518518   5.859  10.490  10.752 -0.3103 -0.4086  1.2620
 1684UDC     C618519   5.830  10.623  10.681 -0.2223 -0.0372  0.2167
 1684UDC     C718520   5.687  10.683  10.707 -0.3409  0.0902 -0.3133
 1684UDC     C818521   5.689  10.818  10.631  0.1887  0.8251  0.5174
 1684UDC     C918522   5.555  10.890  10.620  0.1343 -0.2215  0.6936
 1684UDC    C1018523   5.515  10.933  10.757  0.7193 -0.4347 -0.3937
 1684UDC    C1118524   5.376  11.002  10.776 -0.0574 -0.3645  0.2767
 1685UDC     C118525  19.389   3.192   8.439 -0.5209 -0.0364  0.0141
 1685UDC     C218526  19.257   3.234   8.373 -1.3653 -0.7721  0.3322
 1685UDC     C318527  19.252   3.185   8.226  0.6291 -0.0203 -0.8563
 1685UDC     C418528  19.117   3.242   8.166  0.0656  0.9824  0.4742
 1685UDC     C518529  19.084   3.184   8.028  0.0278  0.7502 -0.5472
 1685UDC     C618530  18.950   3.225   7.968 -0.3984  0.2417 -0.4911
 1685UDC     C718531  18.823   3.131   7.975 -0.2098  0.2657 -0.3357
 1685UDC     C818532  18.690   3.198   7.965  0.1560 -0.5330 -1.4861
 1685UDC     C918533  18.642   3.283   8.082  0.9246  0.0481  0.1400
 1685UDC    C1018534  18.554   3.233   8.198 -0.9031 -1.6766  0.4876
 1685UDC    C1118535  18.506   3.349   8.285 -0.5057 -0.3202 -0.1682
 1686UDC     C118536  12.379   2.864  15.494 -0.3831 -0.1940 -0.5854
 1686UDC     C218537  12.427   2.736  15.427 -0.1193 -0.2175  0.5759
 1686UDC     C318538  12.490   2.754  15.285 -0.3205  0.1548 -0.1100
 1686UDC     C418539  12.606   2.855  15.269 -0.4937  0.2276  0.6155
 1686UDC     C518540  12.743   2.830  15.339  1.4561 -1.1413 -0.7043
 1686UDC     C618541  12.832   2.722  15.270 -0.2090  0.3351  0.9901
 1686UDC     C718542  12.982   2.719  15.313  0.4857 -0.5376 -1.0523
 1686UDC     C818543  13.062   2.842  15.292  0.2316 -0.2870 -0.1225
 1686UDC     C918544  13.211   2.816  15.331  0.0140 -0.3286  0.6206
 1686UDC    C1018545  13.222   2.736  15.458 -0.7847  0.3718 -0.4264
 1686UDC    C1118546  13.341   2.749  15.549  0.1629 -0.0141  0.0830
 1687UDC     C118547  13.769   0.536   8.389  0.1197 -0.5988  0.2234
 1687UDC     C218548  13.637   0.474   8.339  0.7508  1.5870  1.3346
 1687UDC     C318549  13.529   0.569   8.297  0.1738  0.2692  0.2290
 1687UDC     C418550  13.402   0.477   8.275 -0.6646  0.8813  0.4756
 1687UDC     C518551  13.267   0.539   8.247  0.5197  0.5610 -1.0069
 1687UDC     C618552  13.145   0.459   8.282  0.1638  0.4274 -1.0599
 1687UDC     C718553  13.069   0.479   8.413 -0.1930 -0.0557  0.2091
 1687UDC     C818554  12.988   0.361   8.471 -1.1603 -1.2582 -0.5346
 1687UDC     C918555  12.972   0.348   8.626  0.9003  0.2456  0.9064
 1687UDC    C1018556  12.929   0.203   8.668  0.7115 -1.7121  1.1830
 1687UDC    C1118557  12.814   0.149   8.586  1.2659 -0.8511 -0.2513
 1688UDC     C118558   8.214  17.217  13.127 -0.1509  0.1842  0.4227
 1688UDC     C218559   8.147  17.350  13.090 -0.1102 -0.4939 -0.1734
 1688UDC     C318560   8.007  17.348  13.035  0.2832 -0.3077  0.1008
 1688UDC     C418561   8.002  17.359  12.880  0.5787  0.0674 -0.3608
 1688UDC     C518562   7.865  17.417  12.835 -0.3567 -0.4426  0.8576
 1688UDC     C618563   7.884  17.507  12.709  1.1006  0.8199  0.3073
 1688UDC     C718564   7.980  17.617  12.690 -0.0232 -0.3406 -0.0702
 1688UDC     C818565   7.988  17.708  12.816 -0.3121  0.5993 -0.1108
 1688UDC     C918566   8.078  17.833  12.801 -0.3477  1.1461 -0.0005
 1688UDC    C1018567   8.147  17.855  12.942  0.8920 -0.4802 -0.1292
 1688UDC    C1118568   8.216  17.986  12.953  0.4754  0.5548  0.2751
 1689UDC     C118569   1.360  12.558  10.105 -0.8141 -0.5331  0.2503
 1689UDC     C218570   1.479  12.645  10.092  0.1337 -0.1873 -0.1995
 1689UDC     C318571   1.456  12.750  10.200 -0.4905  0.0488  0.0177
 1689UDC     C418572   1.588  12.816  10.257  0.7766  0.6408  0.0729
 1689UDC     C518573   1.695  12.718  10.320  0.8628  0.5619 -0.0977
 1689UDC     C618574   1.698  12.670  10.462  0.1847 -0.3332 -0.1792
 1689UDC     C718575   1.819  12.584  10.505 -0.9593 -0.0082  0.0111
 1689UDC     C818576   1.852  12.441  10.443  0.0656 -0.4510 -0.3828
 1689UDC     C918577   1.935  12.440  10.319 -0.5173 -0.7104  0.8932
 1689UDC    C1018578   1.980  12.579  10.264  0.3137  0.3436 -0.0613
 1689UDC    C1118579   2.103  12.559  10.172 -0.5450 -0.5129  0.0050
 1690UDC     C118580  12.376  12.576   6.306  1.3885  1.0673  0.2268
 1690UDC     C218581  12.313  12.601   6.162 -0.2934  0.7359  0.0977
 1690UDC     C318582  12.367  12.713   6.070 -0.9891 -0.3067  0.0624
 1690UDC     C418583  12.487  12.658   5.982 -0.0824  0.0486 -0.7177
 1690UDC     C518584  12.619  12.642   6.057  0.0529  0.7966  1.5087
 1690UDC     C618585  12.718  12.606   5.947 -0.1877 -1.0501 -0.2181
 1690UDC     C718586  12.860  12.643   5.996  1.4783  0.7204  1.0801
 1690UDC     C818587  12.950  12.534   5.930 -0.2739  0.2653 -0.1677
 1690UDC     C918588  13.101  12.572   5.956 -0.2649  0.1738  0.2195
 1690UDC    C1018589  13.215  12.467   5.969 -1.1932 -1.1087  1.5240
 1690UDC    C1118590  13.362  12.527   5.968  0.2649 -0.3466 -0.6494
 1691UDC     C118591   9.967  10.639   4.368  0.2757 -0.9778  0.3760
 1691UDC     C218592   9.892  10.610   4.235  0.3728  0.6467  0.1841
 1691UDC     C318593   9.943  10.704   4.127  0.3674  0.2312  0.6012
 1691UDC     C418594   9.846  10.698   4.006  0.2576  0.6240  0.5574
 1691UDC     C518595   9.698  10.732   4.017  0.0974  0.2235 -0.3835
 1691UDC     C618596   9.629  10.715   3.880 -1.8233  0.5887  0.4437
 1691UDC     C718597   9.700  10.801   3.768  0.1769  0.1341 -1.0955
 1691UDC     C818598   9.619  10.805   3.633  0.1669 -0.8522 -0.4399
 1691UDC     C918599   9.639  10.903   3.522 -0.1224  0.0884 -0.3113
 1691UDC    C1018600   9.779  10.893   3.454 -0.7372  0.4639  0.1067
 1691UDC    C1118601   9.780  10.753   3.375 -0.5251 -0.0698  0.2018
 1692UDC     C118602  17.903   8.285   0.858 -0.0792  0.6870 -0.1703
 1692UDC     C218603  18.043   8.311   0.804  0.5418 -0.9562  0.6283
 1692UDC     C318604  18.075   8.448   0.747  0.5513 -0.3156  0.1726
 1692UDC     C418605  18.046   8.562   0.850 -1.5205  0.0354  0.8801
 1692UDC     C518606  18.097   8.696   0.782  0.1866 -0.3930 -1.2130
 1692UDC     C618607  18.075   8.833   0.859  0.7707  0.8540  0.4675
 1692UDC     C718608  18.093   8.973   0.790  0.2269  0.9152  0.0153
 1692UDC     C818609  18.182   9.068   0.871  0.0615  0.3378  0.1614
 1692UDC     C918610  18.117   9.144   0.986 -0.3368 -0.2030  0.4153
 1692UDC    C1018611  18.204   9.247   1.053 -0.0565 -0.2843  0.2185
 1692UDC    C1118612  18.324   9.184   1.130 -0.7689 -0.6866  0.5533
 1693UDC     C118613  16.592  13.293  14.081  0.1867  0.3671 -1.6697
 1693UDC     C218614  16.558  13.164  14.167  0.1476 -0.7949 -0.3589
 1693UDC     C318615  16.686  13.143  14.245  0.3463  0.2349 -1.1524
 1693UDC     C418616  16.739  13.274  14.304 -1.3904  0.3247 -0.0031
 1693UDC     C518617  16.859  13.275  14.397 -0.3152 -0.2068 -1.0909
 1693UDC     C618618  16.951  13.390  14.353 -0.4225 -0.0200  1.3711
 1693UDC     C718619  17.061  13.405  14.455  0.2798 -0.6696 -0.2679
 1693UDC     C818620  17.001  13.432  14.594  0.3271 -0.3079 -0.0974
 1693UDC     C918621  16.911  13.553  14.595  0.2347 -2.1796 -1.0241
 1693UDC    C1018622  16.983  13.682  14.542 -0.5053  0.5782  1.2290
 1693UDC    C1118623  17.039  13.768  14.649 -0.1049 -0.1224 -0.2332
 1694UDC     C118624   7.795  12.833  12.001  1.4350 -1.1869  0.9297
 1694UDC     C218625   7.740  12.971  11.979  0.8473 -1.8481  0.1193
 1694UDC     C318626   7.708  13.019  11.839 -0.3290 -0.8816  0.7504
 1694UDC     C418627   7.704  13.169  11.828 -0.1485  1.2195 -0.2302
 1694UDC     C518628   7.829  13.249  11.813 -1.1781  0.1594  0.7924
 1694UDC     C618629   7.790  13.390  11.842 -0.6056  0.8372 -1.0694
 1694UDC     C718630   7.876  13.501  11.785 -0.9925 -0.1087 -1.0085
 1694UDC     C818631   7.818  13.598  11.685 -0.3427 -0.0023 -2.0623
 1694UDC     C918632   7.895  13.722  11.639 -0.3693 -0.8480  1.0803
 1694UDC    C1018633   7.828  13.857  11.678 -1.0731  0.5183  0.7607
 1694UDC    C1118634   7.877  13.975  11.595  0.0950  0.5863 -0.9402
 1695UDC     C118635  15.783   0.954   7.207  0.2975  0.2311  0.1673
 1695UDC     C218636  15.759   0.848   7.091  0.0485  0.4337  0.1604
 1695UDC     C318637  15.862   0.868   6.977 -0.3744 -0.3693 -0.7011
 1695UDC     C418638  15.981   0.772   6.948 -1.2135 -0.8388  0.5393
 1695UDC     C518639  15.975   0.681   6.827 -1.4124 -0.1320 -0.1782
 1695UDC     C618640  16.117   0.610   6.825 -0.0478  0.9574  0.1940
 1695UDC     C718641  16.096   0.474   6.748  0.4619 -0.1741  0.2599
 1695UDC     C818642  15.976   0.379   6.767  0.3123 -0.3464  0.1678
 1695UDC     C918643  15.937   0.303   6.642 -0.3354 -0.4566  0.4672
 1695UDC    C1018644  16.018   0.178   6.602 -0.2234  0.3569 -0.1924
 1695UDC    C1118645  16.152   0.169   6.537  0.7040 -0.9958  0.6448
 1696UDC     C118646  14.503   9.378  10.799 -0.2392 -0.0438 -0.0317
 1696UDC     C218647  14.527   9.391  10.636 -0.2148 -0.3809  0.1393
 1696UDC     C318648  14.444   9.504  10.564 -0.4540 -0.1463  0.7224
 1696UDC     C418649  14.296   9.464  10.566  0.4421 -0.7148  0.6241
 1696UDC     C518650  14.201   9.573  10.513 -0.2604 -0.8943 -0.0759
 1696UDC     C618651  14.068   9.514  10.468  1.0116 -0.8505  0.2902
 1696UDC     C718652  13.950   9.500  10.562 -0.3263  0.1647  0.0660
 1696UDC     C818653  13.827   9.435  10.495 -0.5161  1.3545  0.0460
 1696UDC     C918654  13.698   9.398  10.573  0.3144  0.2420 -0.6075
 1696UDC    C1018655  13.602   9.511  10.566  0.6856 -0.9584 -0.3252
 1696UDC    C1118656  13.487   9.495  10.664  1.2522 -1.2149  0.2044
 1697UDC     C118657  14.866  10.974   7.686 -0.0864  0.9196  0.0890
 1697UDC     C218658  14.860  11.120   7.731  0.2613  0.0593 -0.1779
 1697UDC     C318659  14.994  11.182   7.697 -1.0805  0.5812 -0.5198
 1697UDC     C418660  14.969  11.329   7.712  0.4598 -0.9470 -0.0464
 1697UDC     C518661  15.090  11.420   7.659 -0.0822  0.5090 -0.5534
 1697UDC     C618662  15.040  11.562   7.629  0.2195  0.4004  0.3496
 1697UDC     C718663  14.918  11.553   7.531 -0.0817  0.2452 -0.1424
 1697UDC     C818664  14.956  11.489   7.399 -0.9593  0.0274  0.0962
 1697UDC     C918665  15.051  11.556   7.303  0.3422 -0.3074 -0.1607
 1697UDC    C1018666  15.045  11.703   7.263 -0.7060 -1.4079  1.0091
 1697UDC    C1118667  15.166  11.738   7.174 -0.5905 -0.0394 -1.2656
 1698UDC     C118668   1.546  19.443   8.789 -0.6817  0.3246 -0.3653
 1698UDC     C218669   1.638  19.324   8.828  0.0056  0.0903 -0.3292
 1698UDC     C318670   1.736  19.283   8.718 -0.3826  0.9771  0.3382
 1698UDC     C418671   1.679  19.202   8.606 -0.3070  0.1580  0.1154
 1698UDC     C518672   1.698  19.052   8.609 -0.2310 -0.4843 -0.5889
 1698UDC     C618673   1.642  18.976   8.735  1.2205 -0.8924  0.4050
 1698UDC     C718674   1.659  18.829   8.746  0.6204  0.0894  0.3242
 1698UDC     C818675   1.583  18.755   8.633 -0.4675  0.1146 -1.0682
 1698UDC     C918676   1.595  18.606   8.650 -0.2030  0.0363  1.2559
 1698UDC    C1018677   1.708  18.542   8.564  0.8549  1.0110 -0.3856
 1698UDC    C1118678   1.719  18.391   8.588  1.2306  0.1210  0.9389
 1699UDC     C118679  10.997   7.485  14.409  0.1352 -0.9407 -1.0910
 1699UDC     C218680  10.956   7.612  14.488 -0.0324 -1.4049 -0.2736
 1699UDC     C318681  11.081   7.679  14.552  0.9236  1.7554  0.9084
 1699UDC     C418682  11.032   7.820  14.584  0.3360 -0.6270 -0.5991
 1699UDC     C518683  11.155   7.923  14.570 -1.0306  0.0177 -0.3244
 1699UDC     C618684  11.252   7.897  14.689 -0.1314 -0.0869  0.2255
 1699UDC     C718685  11.391   7.937  14.677 -0.3858 -1.0023  0.1274
 1699UDC     C818686  11.465   7.882  14.556 -0.0745 -0.7289  1.2231
 1699UDC     C918687  11.615   7.872  14.583  0.7066 -0.2763 -0.0037
 1699UDC    C1018688  11.693   7.995  14.600  0.6604  0.0069  0.1598
 1699UDC    C1118689  11.659   8.109  14.503  0.5501  0.1179 -0.2865
 1700UDC     C118690   2.526   6.340  10.963  0.1922  1.0616 -0.5297
 1700UDC     C218691   2.585   6.419  11.083 -0.0897 -0.0287  0.3039
 1700UDC     C318692   2.678   6.537  11.049  1.1740 -1.3563  0.6564
 1700UDC     C418693   2.822   6.497  11.016 -0.7272 -0.2089 -0.8258
 1700UDC     C518694   2.883   6.593  10.921 -0.1151 -1.1479  0.7749
 1700UDC     C618695   3.036   6.576  10.918 -0.4740 -0.8073 -0.0896
 1700UDC     C718696   3.092   6.708  10.869 -0.0152  0.3429  1.3487
 1700UDC     C818697   3.243   6.690  10.838 -0.1565  0.6653 -1.0818
 1700UDC     C918698   3.272   6.608  10.718  0.7220 -1.6978  0.7092
 1700UDC    C1018699   3.203   6.653  10.584  0.1500 -0.1632  0.1420
 1700UDC    C1118700   3.240   6.590  10.447  0.4493 -0.1782 -0.3507
 1701UDC     C118701   4.894  16.561   8.071 -0.3380  0.4233 -0.1598
 1701UDC     C218702   4.927  16.457   8.176  0.3445 -1.3535 -0.4259
 1701UDC     C318703   4.932  16.309   8.137  0.4542  0.7113  0.4580
 1701UDC     C418704   4.954  16.216   8.248  0.6046 -0.0835 -0.3691
 1701UDC     C518705   4.839  16.208   8.347  0.2604  0.2870  0.8614
 1701UDC     C618706   4.892  16.148   8.474 -0.2639 -0.4414 -0.1744
 1701UDC     C718707   4.961  16.018   8.455  0.4276  0.1004  0.4589
 1701UDC     C818708   5.059  15.987   8.564 -0.9219 -0.3290 -0.4416
 1701UDC     C918709   5.163  16.105   8.563  0.2396  1.2900  0.2714
 1701UDC    C1018710   5.271  16.080   8.674 -0.4741  0.2133  0.6720
 1701UDC    C1118711   5.334  15.944   8.669 -0.0378 -0.3220  0.2166
 1702UDC     C118712   8.583   2.467  14.281 -1.1338  0.2653 -0.5198
 1702UDC     C218713   8.486   2.369  14.349 -0.0269 -0.9616  0.2356
 1702UDC     C318714   8.436   2.414  14.485 -0.2186  0.3853 -0.5930
 1702UDC     C418715   8.366   2.297  14.554 -0.0111  0.7181 -0.1513
 1702UDC     C518716   8.325   2.328  14.703 -0.4188  0.8136 -0.1377
 1702UDC     C618717   8.419   2.298  14.823 -0.7349  0.4067 -0.0968
 1702UDC     C718718   8.329   2.270  14.944 -0.0067  0.3700 -0.3286
 1702UDC     C818719   8.243   2.143  14.924  0.1211  0.4576  0.1923
 1702UDC     C918720   8.140   2.107  15.025  0.6286 -0.1207  0.2608
 1702UDC    C1018721   8.031   2.217  15.028  1.0500  0.0073  0.5724
 1702UDC    C1118722   7.929   2.201  15.138 -0.0988 -0.3358  0.1073
 1703UDC     C118723   3.536  13.213   4.940  0.2276 -1.2033 -0.0765
 1703UDC     C218724   3.479  13.236   4.804  0.7468  0.2827 -0.4406
 1703UDC     C318725   3.513  13.122   4.705  1.0767 -0.0521 -1.0040
 1703UDC     C418726   3.414  13.150   4.593  0.3811 -0.1875 -0.5026
 1703UDC     C518727   3.270  13.173   4.647  0.2399 -0.2617 -1.2208
 1703UDC     C618728   3.189  13.252   4.550  0.7266 -0.0167  0.0364
 1703UDC     C718729   3.042  13.295   4.587 -0.2039  0.5845 -0.2486
 1703UDC     C818730   2.991  13.190   4.684  0.6244  0.3851 -0.5762
 1703UDC     C918731   2.848  13.238   4.706  1.5381  0.9090 -1.1824
 1703UDC    C1018732   2.749  13.210   4.603  0.1904 -0.1159 -0.8940
 1703UDC    C1118733   2.749  13.287   4.476 -0.2486  0.4379  0.5694
 1704UDC     C118734  11.187  11.743   7.310  0.4436 -0.8895  1.2265
 1704UDC     C218735  11.327  11.723   7.249 -0.1731  0.3222 -0.1992
 1704UDC     C318736  11.431  11.813   7.317  0.3273 -0.0505 -0.3469
 1704UDC     C418737  11.395  11.960   7.300 -0.3943  0.0357 -0.7653
 1704UDC     C518738  11.499  12.063   7.347 -0.3092 -0.2053 -0.1658
 1704UDC     C618739  11.440  12.202   7.372 -0.3051 -0.5704 -0.1639
 1704UDC     C718740  11.437  12.242   7.523  0.0220 -0.1376 -0.3047
 1704UDC     C818741  11.339  12.364   7.548 -0.2111 -0.7364  0.1752
 1704UDC     C918742  11.376  12.450   7.675 -0.4790 -0.1523  0.9439
 1704UDC    C1018743  11.282  12.558   7.716  0.1201 -0.3548 -0.7935
 1704UDC    C1118744  11.134  12.530   7.764 -0.3120  0.5867 -1.1281
 1705UDC     C118745   5.897  12.754   4.394  0.4827  0.1935  0.0153
 1705UDC     C218746   5.955  12.897   4.382  0.3658 -0.0186 -0.6404
 1705UDC     C318747   5.918  12.987   4.262  0.6913  1.0744 -0.7396
 1705UDC     C418748   6.042  13.074   4.214  0.9553 -0.0026 -0.5315
 1705UDC     C518749   6.008  13.195   4.123  0.0206  0.3202 -0.5656
 1705UDC     C618750   5.883  13.175   4.032  0.4357  0.7968  0.8857
 1705UDC     C718751   5.826  13.304   3.970 -0.4351  0.3305 -0.6183
 1705UDC     C818752   5.794  13.282   3.824 -1.3466 -0.4252  0.4863
 1705UDC     C918753   5.724  13.398   3.759  0.7316  0.3959  0.0689
 1705UDC    C1018754   5.729  13.369   3.606  0.1402  0.4269  0.3400
 1705UDC    C1118755   5.660  13.469   3.516 -0.2439  0.4902  0.5350
 1706UDC     C118756   8.897  17.390   4.004 -0.4114  1.1272 -0.5381
 1706UDC     C218757   8.919  17.256   4.067 -0.8433 -0.1597 -1.1655
 1706UDC     C318758   9.065  17.202   4.032  0.7102 -0.6267 -0.2237
 1706UDC     C418759   9.183  17.255   4.116  0.8866 -0.1900 -0.1878
 1706UDC     C518760   9.301  17.172   4.072  0.5780  0.4876  0.7612
 1706UDC     C618761   9.421  17.240   4.134  0.2351  0.5893 -0.4256
 1706UDC     C718762   9.567  17.200   4.090  0.4890  0.0420 -0.5919
 1706UDC     C818763   9.592  17.154   3.944 -0.2276 -1.8309 -0.5888
 1706UDC     C918764   9.744  17.159   3.899 -1.4216 -0.4668  0.6787
 1706UDC    C1018765   9.768  17.140   3.748 -0.9554 -0.6589 -0.2983
 1706UDC    C1118766   9.669  17.230   3.677 -0.2194 -0.2436 -0.3593
 1707UDC     C118767  11.560   9.180   7.106  0.0112  0.0597  0.3981
 1707UDC     C218768  11.449   9.156   6.999 -0.7539  0.4429 -0.5634
 1707UDC     C318769  11.449   9.212   6.854  0.1251  0.5061  0.2366
 1707UDC     C418770  11.556   9.172   6.743  0.4278  0.3236 -0.4352
 1707UDC     C518771  11.698   9.238   6.746  1.3356  0.4298  0.4858
 1707UDC     C618772  11.788   9.207   6.621  0.5735  1.1161 -0.0843
 1707UDC     C718773  11.915   9.298   6.622  1.4615  0.0365 -0.5717
 1707UDC     C818774  11.940   9.370   6.488  0.0988  0.1592 -1.0885
 1707UDC     C918775  11.816   9.450   6.460 -0.7050  0.1780 -0.6742
 1707UDC    C1018776  11.803   9.549   6.346  0.0449  0.8282 -0.2105
 1707UDC    C1118777  11.688   9.644   6.361  1.0143  0.0611  0.8559
 1708UDC     C118778  17.400  13.559   6.323 -0.2379  0.0826 -1.0340
 1708UDC     C218779  17.251  13.537   6.352 -0.4918  1.2642 -0.7546
 1708UDC     C318780  17.214  13.443   6.469  0.6956 -0.5433 -0.5178
 1708UDC     C418781  17.058  13.405   6.479 -0.3602 -1.1842  0.6442
 1708UDC     C518782  17.000  13.324   6.369 -0.4151  0.9346  0.3663
 1708UDC     C618783  16.847  13.316   6.408  0.4906  1.0616  0.1817
 1708UDC     C718784  16.762  13.440   6.400  0.2929  1.4466 -0.6433
 1708UDC     C818785  16.629  13.405   6.461 -0.5930  0.4165  0.4372
 1708UDC     C918786  16.555  13.531   6.503 -0.1847  0.6976 -0.5726
 1708UDC    C1018787  16.444  13.520   6.609 -0.3982 -1.0909  0.4627
 1708UDC    C1118788  16.414  13.666   6.647  0.5945  0.0221 -1.0721
 1709UDC     C118789   0.129  12.485   9.965 -0.1494  0.9107 -0.9391
 1709UDC     C218790   0.106  12.502   9.810 -0.5894 -0.1867  0.1376
 1709UDC     C318791   0.033  12.633   9.752 -1.2257  1.2820 -0.1907
 1709UDC     C418792   0.035  12.616   9.598  0.2970 -0.1498 -0.6145
 1709UDC     C518793  -0.057  12.718   9.526 -0.2041  0.2074  1.4867
 1709UDC     C618794  -0.193  12.745   9.589  0.0459  1.2962 -0.2241
 1709UDC     C718795  -0.293  12.620   9.579  0.1153 -0.2822  0.4034
 1709UDC     C818796  -0.341  12.572   9.717 -1.1740 -0.2386 -0.2453
 1709UDC     C918797  -0.420  12.444   9.745  0.3283 -0.4778  0.7569
 1709UDC    C1018798  -0.360  12.314   9.692  0.6009 -0.3228 -0.0374
 1709UDC    C1118799  -0.214  12.280   9.738 -1.0718 -0.1286  0.0605
 1710UDC     C118800   1.995   9.429   8.913  0.7710  0.9189  0.3577
 1710UDC     C218801   1.909   9.557   8.919  0.5117  0.2748  0.5069
 1710UDC     C318802   1.780   9.543   8.829 -0.0136  0.3326  0.1508
 1710UDC     C418803   1.666   9.495   8.917  0.0657 -0.3636  0.0150
 1710UDC     C518804   1.519   9.524   8.877  0.1045 -0.5553 -0.1097
 1710UDC     C618805   1.424   9.437   8.954 -0.6088 -0.1144 -0.9414
 1710UDC     C718806   1.276   9.466   8.970  0.0203  1.1133  0.2822
 1710UDC     C818807   1.196   9.353   9.035 -0.3390 -0.2400  0.7563
 1710UDC     C918808   1.057   9.388   9.061  0.2656  0.0899 -0.2656
 1710UDC    C1018809   0.969   9.269   9.101 -0.8023  0.2644  0.7953
 1710UDC    C1118810   0.824   9.280   9.052 -0.0931  0.0115 -0.9250
 1711UDC     C118811   8.920  17.782  16.870  0.1713 -0.0155 -0.4335
 1711UDC     C218812   8.776  17.743  16.824  0.6044  0.5857 -0.1570
 1711UDC     C318813   8.707  17.737  16.960 -0.4321 -0.2455 -0.5274
 1711UDC     C418814   8.564  17.690  16.920 -0.9461  1.1373  0.4605
 1711UDC     C518815   8.470  17.693  17.046  0.0235 -0.5441  0.0093
 1711UDC     C618816   8.477  17.836  17.109  0.6001  0.4468 -0.2136
 1711UDC     C718817   8.375  17.921  17.027 -0.3589 -0.5076  0.4737
 1711UDC     C818818   8.373  18.075  17.055 -0.0341  0.1539 -0.2939
 1711UDC     C918819   8.265  18.159  16.990  0.8759  0.4995 -0.3704
 1711UDC    C1018820   8.128  18.091  16.995  0.6234 -0.0707  0.1645
 1711UDC    C1118821   8.019  18.168  16.918  0.5913  0.1172 -0.0612
 1712UDC     C118822  13.352  13.719  15.450  0.3788 -0.2875  0.7119
 1712UDC     C218823  13.317  13.777  15.591 -0.3484  1.3117 -0.6278
 1712UDC     C318824  13.205  13.889  15.591  0.6019  0.5333  0.2358
 1712UDC     C418825  13.188  13.947  15.735  0.4241  0.6969  0.8456
 1712UDC     C518826  13.178  14.094  15.732  0.3244 -1.3207  0.0490
 1712UDC     C618827  13.142  14.160  15.867 -0.5697  0.2950 -0.0377
 1712UDC     C718828  13.157  14.317  15.858 -0.8146  0.6711 -0.2386
 1712UDC     C818829  13.058  14.386  15.766  0.4867 -0.7371 -0.5354
 1712UDC     C918830  13.083  14.537  15.745 -0.5399 -0.9955 -0.5125
 1712UDC    C1018831  13.024  14.650  15.834  0.5289  0.9391  0.7480
 1712UDC    C1118832  13.039  14.790  15.778  0.1323 -0.3506 -0.3940
 1713UDC     C118833   4.684   1.284  18.550  0.9424  0.7668  1.0283
 1713UDC     C218834   4.674   1.129  18.541 -0.9178  0.1994 -0.0021
 1713UDC     C318835   4.698   1.036  18.666 -0.8452 -1.2511  0.2195
 1713UDC     C418836   4.662   0.891  18.635  0.0721 -0.3200  0.4805
 1713UDC     C518837   4.522   0.826  18.641 -0.8294 -0.2754  0.1814
 1713UDC     C618838   4.540   0.717  18.750 -0.0393  0.9153  0.1404
 1713UDC     C718839   4.420   0.629  18.729  0.6642 -0.1864 -0.0176
 1713UDC     C818840   4.433   0.499  18.810 -0.1299  0.3885  0.2781
 1713UDC     C918841   4.392   0.488  18.961  0.6076  0.3947  0.8089
 1713UDC    C1018842   4.267   0.582  18.991 -0.5983  0.4874  0.9399
 1713UDC    C1118843   4.131   0.529  18.944  0.3946 -0.1857 -0.4719
 1714UDC     C118844  16.367   6.978   8.078  0.6506  0.1474  0.7051
 1714UDC     C218845  16.481   7.078   8.079 -0.1261 -0.5269  0.2243
 1714UDC     C318846  16.483   7.177   8.196 -0.5580 -0.4243  2.2730
 1714UDC     C418847  16.482   7.098   8.322  0.7638 -0.2824  0.6877
 1714UDC     C518848  16.507   7.197   8.437  0.0898 -0.1877  0.4666
 1714UDC     C618849  16.388   7.239   8.530 -0.9488 -0.1706 -0.8027
 1714UDC     C718850  16.420   7.348   8.632 -0.2009  0.1246  0.5591
 1714UDC     C818851  16.477   7.484   8.572 -1.3785 -1.0092  0.4746
 1714UDC     C918852  16.417   7.618   8.612  1.0225 -0.1957 -0.4480
 1714UDC    C1018853  16.287   7.633   8.549  0.6377  1.0926  0.3664
 1714UDC    C1118854  16.201   7.756   8.588  0.4065  0.5143 -1.3214
 1715UDC     C118855  15.551  17.767   9.306  0.9825 -0.5834  0.4107
 1715UDC     C218856  15.670  17.702   9.375 -0.0864 -0.0530  1.1887
 1715UDC     C318857  15.792  17.792   9.363  0.9189  0.3499 -0.2843
 1715UDC     C418858  15.920  17.743   9.429 -0.1698 -0.3288  0.2119
 1715UDC     C518859  16.002  17.643   9.346  0.3841 -0.3879 -0.9174
 1715UDC     C618860  16.145  17.621   9.412  1.2381  0.5405  1.1029
 1715UDC     C718861  16.248  17.534   9.338 -0.3012 -0.7842  0.4951
 1715UDC     C818862  16.300  17.579   9.199 -0.8016  0.2014 -1.0717
 1715UDC     C918863  16.404  17.479   9.145 -0.9806  0.4190  0.5735
 1715UDC    C1018864  16.487  17.438   9.264 -1.2047 -1.0349  0.2027
 1715UDC    C1118865  16.580  17.315   9.224 -0.3591 -0.8268 -0.3515
 1716UDC     C118866   6.487   5.998   8.697 -0.9146  0.4505 -0.2743
 1716UDC     C218867   6.535   6.136   8.640  0.1248  0.2659  0.0102
 1716UDC     C318868   6.658   6.105   8.558 -0.2001  0.0862  0.7398
 1716UDC     C418869   6.715   6.199   8.448 -0.1405 -0.8817 -0.3314
 1716UDC     C518870   6.773   6.333   8.505  0.7895 -0.7060 -1.2410
 1716UDC     C618871   6.899   6.314   8.589  0.0029  0.1737 -0.0428
 1716UDC     C718872   6.993   6.191   8.562 -1.1075 -0.0316 -0.3949
 1716UDC     C818873   7.149   6.204   8.539 -1.4031  0.1246 -0.5883
 1716UDC     C918874   7.219   6.077   8.517 -0.8262  0.1346 -0.6633
 1716UDC    C1018875   7.364   6.089   8.465  0.3643  0.5089  1.7027
 1716UDC    C1118876   7.471   6.171   8.533  0.4372  0.2313  0.1243
 1717UDC     C118877   3.878  19.536  16.338  0.3074 -0.1489 -1.0205
 1717UDC     C218878   3.850  19.650  16.446  0.1746  0.2980 -0.1583
 1717UDC     C318879   3.756  19.775  16.423 -0.7690  0.2088  0.7995
 1717UDC     C418880   3.813  19.877  16.527 -0.2837  0.3765 -0.5348
 1717UDC     C518881   3.934  19.970  16.479  0.0819  0.0476 -0.8769
 1717UDC     C618882   3.959  20.060  16.601  0.5345  0.2239  0.0584
 1717UDC     C718883   3.844  20.093  16.691  0.5139  0.4516 -0.7812
 1717UDC     C818884   3.882  20.158  16.824 -0.9081 -0.0333 -0.0532
 1717UDC     C918885   3.947  20.055  16.923 -0.1990 -1.2468  0.1826
 1717UDC    C1018886   3.843  19.940  16.931  0.3148 -0.0320  1.0379
 1717UDC    C1118887   3.879  19.832  17.044 -0.5082  0.4342  0.5222
 1718UDC     C118888   1.249  14.521   4.784  0.5932  0.3227 -0.2932
 1718UDC     C218889   1.326  14.643   4.734  0.8125 -0.5735  0.8846
 1718UDC     C318890   1.293  14.781   4.796 -0.1813 -0.5064 -0.3454
 1718UDC     C418891   1.358  14.903   4.728  0.4961  0.0009  0.7204
 1718UDC     C518892   1.274  15.032   4.764 -0.6090  0.2944 -0.7298
 1718UDC     C618893   1.131  15.036   4.698 -0.1782 -0.3262  0.2426
 1718UDC     C718894   1.072  15.176   4.691  0.6229 -0.6714  0.2076
 1718UDC     C818895   0.921  15.160   4.650 -0.7132  0.5146  0.9283
 1718UDC     C918896   0.824  15.272   4.679 -0.1941 -0.4498 -0.2925
 1718UDC    C1018897   0.679  15.274   4.631 -0.3369  0.9277  0.6792
 1718UDC    C1118898   0.588  15.162   4.684  0.6067 -0.1797  0.1430
 1719UDC     C118899   3.886  11.726   4.845 -0.4611  0.5888  0.2785
 1719UDC     C218900   4.005  11.760   4.938 -0.5445  0.6057  0.4006
 1719UDC     C318901   4.142  11.755   4.858  0.6401  0.4825  0.0955
 1719UDC     C418902   4.190  11.889   4.806  0.9344 -0.3777 -0.4803
 1719UDC     C518903   4.085  11.995   4.783 -0.2992  0.3546  0.3947
 1719UDC     C618904   4.129  12.140   4.805 -0.0116 -0.7972  0.0697
 1719UDC     C718905   4.196  12.171   4.938 -0.3443 -0.9514 -0.7251
 1719UDC     C818906   4.165  12.323   4.966  0.5541 -0.0328 -1.1075
 1719UDC     C918907   4.290  12.419   4.965 -0.7053 -0.1209 -0.1229
 1719UDC    C1018908   4.289  12.557   5.035  0.6485  0.1833 -0.3862
 1719UDC    C1118909   4.212  12.675   4.967  0.2372  0.4996  0.3474
 1720UDC     C118910  11.408   6.490   9.853 -0.1703  0.3641  0.1433
 1720UDC     C218911  11.261   6.496   9.893 -1.3414 -0.7457 -0.1632
 1720UDC     C318912  11.165   6.531   9.773  0.6540 -0.7240  0.1087
 1720UDC     C418913  11.202   6.683   9.741 -0.3061  0.1654  0.6691
 1720UDC     C518914  11.137   6.739   9.613 -0.7113 -0.7946  0.3373
 1720UDC     C618915  11.172   6.891   9.602  0.7918  0.1460 -0.3727
 1720UDC     C718916  11.077   6.970   9.519 -1.2005  0.2875 -0.2152
 1720UDC     C818917  11.075   7.124   9.525 -0.0260 -0.0592 -0.5304
 1720UDC     C918918  11.030   7.182   9.659  0.5655 -0.4480 -0.9633
 1720UDC    C1018919  10.882   7.210   9.694 -0.0258  0.2786 -0.7795
 1720UDC    C1118920  10.860   7.244   9.843  0.0424  0.4474 -0.4135
 1721UDC     C118921   4.348  16.829   0.356  0.0657  0.7662  0.0903
 1721UDC     C218922   4.480  16.762   0.385  0.8364  0.7182 -1.1736
 1721UDC     C318923   4.596  16.841   0.324  0.9172 -0.8090  0.3260
 1721UDC     C418924   4.730  16.777   0.335 -0.6734  0.2246 -0.1872
 1721UDC     C518925   4.835  16.859   0.270 -0.0192  0.0892  0.5776
 1721UDC     C618926   4.936  16.775   0.183  0.3544  0.6627  0.1701
 1721UDC     C718927   5.064  16.843   0.130 -0.4733 -1.0955 -0.4241
 1721UDC     C818928   5.120  16.951   0.228  0.4270 -0.5882  0.0867
 1721UDC     C918929   5.266  16.977   0.202  0.3371  0.1557 -0.8635
 1721UDC    C1018930   5.288  17.125   0.248 -0.5250  0.5790  0.9916
 1721UDC    C1118931   5.247  17.151   0.390  0.9309  0.3975 -0.7969
 1722UDC     C118932  19.728   2.763   1.702  0.0701 -0.2464  0.2409
 1722UDC     C218933  19.838   2.839   1.781 -0.8212 -1.0546 -0.6914
 1722UDC     C318934  19.988   2.805   1.749  0.1853  0.4148 -0.0108
 1722UDC     C418935  20.030   2.670   1.795 -0.0329 -0.0686 -0.3207
 1722UDC     C518936  19.993   2.650   1.943  1.6973  0.3167 -0.4999
 1722UDC     C618937  19.995   2.497   1.977  0.4555 -0.5037 -0.1968
 1722UDC     C718938  20.004   2.465   2.125 -0.4083  0.5147  0.5819
 1722UDC     C818939  20.137   2.498   2.185 -1.0403 -0.8063  0.5881
 1722UDC     C918940  20.143   2.447   2.330  0.4142 -0.3332  0.6890
 1722UDC    C1018941  20.268   2.489   2.412  0.3576 -0.5617 -0.8736
 1722UDC    C1118942  20.393   2.461   2.324  0.1869 -1.2417 -0.3048
 1723UDC     C118943   1.657  13.558   3.231 -0.1003 -0.2091 -0.2670
 1723UDC     C218944   1.750  13.622   3.130 -0.6466  0.3387  0.7597
 1723UDC     C318945   1.686  13.627   2.988  0.8841  0.8664 -0.0561
 1723UDC     C418946   1.741  13.742   2.895  0.4208 -0.3540  0.4181
 1723UDC     C518947   1.894  13.739   2.845 -0.1611 -0.1000 -0.5701
 1723UDC     C618948   1.965  13.876   2.849  0.2590  1.1129 -0.9955
 1723UDC     C718949   2.117  13.879   2.800  1.0182 -0.2312  0.2154
 1723UDC     C818950   2.157  13.840   2.661 -0.0194  0.2178 -1.0247
 1723UDC     C918951   2.270  13.939   2.630  0.1715 -0.6336  0.1650
 1723UDC    C1018952   2.291  13.944   2.476 -0.3069 -0.8127  0.1767
 1723UDC    C1118953   2.417  14.022   2.429 -0.4573  0.2339  0.6200
 1724UDC     C118954  12.643  10.149   5.954  0.0609 -0.1308  0.0793
 1724UDC     C218955  12.574  10.100   6.087  0.0283  0.0363  1.1766
 1724UDC     C318956  12.452  10.024   6.051  0.9484  1.1444 -0.5450
 1724UDC     C418957  12.327  10.098   6.102 -1.0606 -0.6442  0.0338
 1724UDC     C518958  12.224  10.029   6.190 -0.8786  0.0772  1.4950
 1724UDC     C618959  12.144  10.110   6.282 -0.2238 -0.3537 -0.2861
 1724UDC     C718960  12.232  10.169   6.389  0.0286 -0.7683 -1.2295
 1724UDC     C818961  12.165  10.264   6.492 -0.2311  0.0427 -0.2231
 1724UDC     C918962  12.228  10.259   6.631 -0.4183 -0.6331  0.8000
 1724UDC    C1018963  12.168  10.330   6.755 -0.0267 -0.8953 -0.6584
 1724UDC    C1118964  12.173  10.486   6.769  0.5561 -0.8549  0.5440
 1725UDC     C118965   1.477   2.089   2.812  0.1782  0.2184 -1.7109
 1725UDC     C218966   1.581   2.192   2.863 -0.0040 -0.3616 -1.1448
 1725UDC     C318967   1.684   2.224   2.765 -0.4868  0.6483  0.8515
 1725UDC     C418968   1.617   2.254   2.629  0.2015 -1.3128  0.1864
 1725UDC     C518969   1.707   2.304   2.517  1.1540  0.6850  0.0810
 1725UDC     C618970   1.638   2.238   2.393  1.0061 -0.0076 -1.6260
 1725UDC     C718971   1.524   2.331   2.342  0.2268 -0.0642 -0.0802
 1725UDC     C818972   1.458   2.263   2.213  0.7022  0.6187  0.6621
 1725UDC     C918973   1.521   2.306   2.074  0.4614  0.2238 -0.6704
 1725UDC    C1018974   1.534   2.193   1.976 -0.3286  0.6757 -0.2326
 1725UDC    C1118975   1.449   2.232   1.848 -0.0195 -0.5777  1.0547
 1726UDC     C118976  15.418   5.866  19.716 -1.0411  0.9218  0.0883
 1726UDC     C218977  15.347   5.792  19.601  0.8173 -0.7575  0.7635
 1726UDC     C318978  15.234   5.859  19.519 -0.1139  0.7398 -0.1352
 1726UDC     C418979  15.125   5.896  19.616 -0.1175 -0.0418 -1.1651
 1726UDC     C518980  14.984   5.931  19.564 -0.9711  0.0126 -0.3366
 1726UDC     C618981  14.900   5.972  19.685 -1.1185  1.0185 -0.7989
 1726UDC     C718982  14.966   6.082  19.768  0.5942  0.2176 -0.0156
 1726UDC     C818983  14.937   6.212  19.691 -0.6130 -1.1040 -0.6769
 1726UDC     C918984  14.794   6.257  19.678  0.5407 -0.1103  0.1674
 1726UDC    C1018985  14.739   6.272  19.818 -0.7676 -0.4383  0.6259
 1726UDC    C1118986  14.597   6.256  19.854  0.4241 -0.6805 -0.8044
 1727UDC     C118987  15.645  11.080   0.881  0.3467  0.3907 -0.1907
 1727UDC     C218988  15.679  10.930   0.872  0.0798 -0.3894  0.4531
 1727UDC     C318989  15.810  10.884   0.928 -0.8389 -0.1328  0.2853
 1727UDC     C418990  15.814  10.737   0.929  0.0227  1.1431  0.4873
 1727UDC     C518991  15.902  10.660   1.026  0.2764 -0.7926 -0.4749
 1727UDC     C618992  15.892  10.505   1.018  0.2587  0.2610 -0.3800
 1727UDC     C718993  16.030  10.441   1.058 -1.2410 -0.6673 -0.4946
 1727UDC     C818994  16.130  10.426   0.940 -0.2576 -0.9056 -0.7937
 1727UDC     C918995  16.184  10.284   0.925  0.2621  0.8466  0.6754
 1727UDC    C1018996  16.332  10.270   0.961 -1.5012 -0.0489 -0.6912
 1727UDC    C1118997  16.371  10.159   1.063  0.0640 -0.7752  0.8026
 1728UDC     C118998   9.075  14.442  13.184 -1.0316  0.0883  0.6183
 1728UDC     C218999   8.945  14.359  13.192 -0.1321  0.6155 -0.1426
 1728UDC     C319000   8.975  14.223  13.250  0.0025  0.6182  0.0859
 1728UDC     C419001   9.075  14.133  13.169  0.5583  0.4682  0.2472
 1728UDC     C519002   9.018  14.052  13.053 -0.1850 -0.2692  0.7148
 1728UDC     C619003   8.892  13.975  13.102  0.2423  1.6103 -0.6546
 1728UDC     C719004   8.805  13.924  12.981  0.1505  0.0564 -0.1382
 1728UDC     C819005   8.655  13.892  13.007  0.6606 -0.7628 -0.4496
 1728UDC     C919006   8.635  13.788  13.116 -0.3342 -0.3743 -0.7680
 1728UDC    C1019007   8.707  13.657  13.076  0.1057 -0.3503 -0.2416
 1728UDC    C1119008   8.628  13.567  12.986 -1.0913  0.5098  1.3091
 1729UDC     C119009   5.262  13.649  10.175 -1.0155 -0.4215 -0.2642
 1729UDC     C219010   5.350  13.519  10.181  1.4376 -0.8155 -0.4255
 1729UDC     C319011   5.500  13.521  10.184  0.5568  0.8034 -0.7336
 1729UDC     C419012   5.553  13.369  10.190  0.0210 -0.7643  0.2202
 1729UDC     C519013   5.687  13.358  10.267 -0.2125 -0.0750 -0.2215
 1729UDC     C619014   5.749  13.213  10.248 -0.0264 -0.3072  0.3101
 1729UDC     C719015   5.904  13.195  10.272 -0.4829  0.4448  0.4816
 1729UDC     C819016   5.962  13.092  10.172 -0.8325 -0.4445 -0.4242
 1729UDC     C919017   6.112  13.119  10.192 -0.8613 -1.1450 -1.9565
 1729UDC    C1019018   6.176  13.063  10.321  0.4134 -0.7167  0.0001
 1729UDC    C1119019   6.131  12.915  10.356 -0.0545  0.0171  1.2717
 1730UDC     C119020   9.248  13.971   0.902 -1.1887 -0.0732  0.3258
 1730UDC     C219021   9.130  13.916   0.987  0.0193 -0.8893  0.1787
 1730UDC     C319022   8.995  13.997   0.985  0.1231  0.5777 -0.1537
 1730UDC     C419023   8.887  13.949   1.089  0.6694 -0.5878 -0.0968
 1730UDC     C519024   8.745  14.016   1.088 -0.1254 -0.1580 -0.2479
 1730UDC     C619025   8.765  14.169   1.111  0.4794  0.7372  0.6919
 1730UDC     C719026   8.660  14.269   1.073  1.1546 -0.7559  1.5969
 1730UDC     C819027   8.697  14.424   1.074  0.4972  0.8165 -0.7171
 1730UDC     C919028   8.842  14.465   1.037  0.9794  0.4508  0.5358
 1730UDC    C1019029   8.869  14.451   0.883  0.3656  0.5551  0.5181
 1730UDC    C1119030   9.014  14.396   0.880  1.3568  0.2684 -0.5856
 1731UDC     C119031  11.743  11.710  11.231  0.7821  0.0865  0.6189
 1731UDC     C219032  11.764  11.563  11.193 -0.7080  0.2496  0.2918
 1731UDC     C319033  11.882  11.505  11.271  0.4013 -0.0353 -0.1613
 1731UDC     C419034  11.872  11.530  11.422  0.4347  0.0539 -0.0479
 1731UDC     C519035  11.999  11.477  11.492  0.0300  0.4191 -0.0512
 1731UDC     C619036  12.075  11.583  11.573  0.3484 -0.3965  0.2381
 1731UDC     C719037  12.166  11.518  11.672  0.1392  0.0949 -0.2142
 1731UDC     C819038  12.143  11.365  11.681  0.2067 -0.6586  0.4516
 1731UDC     C919039  12.215  11.317  11.807 -0.5202 -0.2209 -0.4515
 1731UDC    C1019040  12.164  11.402  11.929  0.3717  0.2727  0.3374
 1731UDC    C1119041  12.017  11.357  11.950 -0.3301 -0.6290 -0.2784
 1732UDC     C119042   3.566   6.954  16.424  0.1417 -0.2000  0.6986
 1732UDC     C219043   3.636   7.064  16.343  0.2164 -0.3793  0.1787
 1732UDC     C319044   3.710   7.027  16.211 -0.8709  0.7789 -1.2239
 1732UDC     C419045   3.625   6.984  16.093 -1.1565  0.6877  0.0915
 1732UDC     C519046   3.704   6.904  15.986 -0.1178 -0.1516 -0.4581
 1732UDC     C619047   3.840   6.971  15.963  0.4235 -0.4123  0.3690
 1732UDC     C719048   3.872   6.993  15.814 -0.0952 -0.5856 -0.5364
 1732UDC     C819049   3.951   6.872  15.744  0.8536 -1.8085  0.8995
 1732UDC     C919050   4.102   6.872  15.758  0.0064  0.5048 -0.9367
 1732UDC    C1019051   4.140   6.755  15.854 -0.5550  0.6672 -0.5428
 1732UDC    C1119052   4.296   6.763  15.866 -0.4187 -0.5392  0.8443
 1733UDC     C119053  13.688  16.125   7.402  0.5604 -1.0208 -0.2256
 1733UDC     C219054  13.725  16.253   7.319 -1.7109 -0.0179 -1.5897
 1733UDC     C319055  13.742  16.214   7.179 -0.3296  0.0306  0.8226
 1733UDC     C419056  13.761  16.336   7.092 -0.6799 -0.4523 -0.1527
 1733UDC     C519057  13.732  16.301   6.943 -0.7662  0.4833  0.1423
 1733UDC     C619058  13.583  16.283   6.896 -0.9117  0.3214 -0.3507
 1733UDC     C719059  13.526  16.417   6.892  0.0658  0.1730 -0.8233
 1733UDC     C819060  13.566  16.488   6.760  1.1069  0.2163 -0.3642
 1733UDC     C919061  13.512  16.631   6.748  0.7925 -0.4028  0.1365
 1733UDC    C1019062  13.621  16.721   6.690  0.3661  0.3974  0.4044
 1733UDC    C1119063  13.575  16.863   6.647  0.3396  0.9371 -0.2444
 1734UDC     C119064   1.537   1.369  17.870 -1.0806 -0.0201  0.2331
 1734UDC     C219065   1.650   1.431  17.789 -0.9219  0.3229 -1.0179
 1734UDC     C319066   1.667   1.581  17.826 -0.3972 -0.4463 -0.1099
 1734UDC     C419067   1.564   1.657  17.747 -1.2714  0.5313 -0.0700
 1734UDC     C519068   1.592   1.683  17.602 -0.1757  0.5510 -0.3090
 1734UDC     C619069   1.483   1.771  17.540  0.3704  0.1127 -0.5301
 1734UDC     C719070   1.510   1.802  17.394  0.0823 -0.4941  0.4076
 1734UDC     C819071   1.423   1.915  17.341  1.0200 -0.6072 -0.8482
 1734UDC     C919072   1.328   1.862  17.232 -0.3277 -1.5603 -0.2729
 1734UDC    C1019073   1.264   1.968  17.136 -0.0728  0.0057 -0.5856
 1734UDC    C1119074   1.202   2.080  17.214  1.1820 -1.2044 -0.3128
 1735UDC     C119075   5.378   8.530  19.219 -0.0699  0.9623 -0.1101
 1735UDC     C219076   5.515   8.519  19.152 -0.2931  0.3870 -0.4098
 1735UDC     C319077   5.636   8.558  19.241 -0.0167  0.8938  0.3491
 1735UDC     C419078   5.649   8.712  19.261  0.3701 -0.4341  0.0661
 1735UDC     C519079   5.738   8.759  19.383 -0.0872  0.4654 -0.3550
 1735UDC     C619080   5.697   8.905  19.402 -0.3948 -0.5470  0.1137
 1735UDC     C719081   5.771   8.998  19.304  0.1420  0.0401 -0.7165
 1735UDC     C819082   5.693   9.063  19.183 -0.8562 -0.1770 -0.1682
 1735UDC     C919083   5.641   9.200  19.216 -0.2114 -1.6592  0.0053
 1735UDC    C1019084   5.529   9.201  19.320 -0.0905  0.6312 -0.0073
 1735UDC    C1119085   5.400   9.130  19.275  0.3265 -0.1035 -0.6495
 1736UDC     C119086  18.063  16.171  17.772  0.2221  0.7089  0.3246
 1736UDC     C219087  18.151  16.298  17.757 -0.7796 -0.5009  0.4170
 1736UDC     C319088  18.060  16.425  17.748 -0.5492  0.4343 -0.6046
 1736UDC     C419089  18.131  16.550  17.701  1.2096 -0.6205  0.4341
 1736UDC     C519090  18.051  16.679  17.679  0.7598 -1.0378  0.1607
 1736UDC     C619091  18.113  16.810  17.632 -0.0626  0.2958  1.4247
 1736UDC     C719092  18.133  16.922  17.732 -0.4829 -0.9216  0.6433
 1736UDC     C819093  18.237  17.025  17.685 -0.9237  0.1724  0.0104
 1736UDC     C919094  18.385  16.967  17.684  0.8545 -0.1695  0.1772
 1736UDC    C1019095  18.473  17.091  17.654 -1.4144  0.1355 -0.4059
 1736UDC    C1119096  18.618  17.040  17.666 -0.6353 -0.8752 -0.0801
 1737UDC     C119097   2.720  14.083   3.789  0.0093  0.5577 -0.4456
 1737UDC     C219098   2.622  13.988   3.728 -0.4153 -0.2439 -0.9536
 1737UDC     C319099   2.473  14.034   3.755 -0.6328 -0.0071 -0.4669
 1737UDC     C419100   2.380  13.986   3.641 -0.2204  0.3273 -0.1436
 1737UDC     C519101   2.403  14.031   3.497  0.2429  0.8695 -1.0483
 1737UDC     C619102   2.410  14.192   3.494  0.0208  1.0492  0.0937
 1737UDC     C719103   2.402  14.253   3.349  0.3216  0.3715 -1.2358
 1737UDC     C819104   2.525  14.223   3.263  0.6208  0.8307  1.9307
 1737UDC     C919105   2.560  14.076   3.209 -0.1425  0.3070 -0.6104
 1737UDC    C1019106   2.684  14.056   3.120  0.1614 -0.1381 -0.8413
 1737UDC    C1119107   2.654  14.098   2.974 -0.0068  1.0256  0.3052
 1738UDC     C119108  19.043   5.172  12.014  1.3645  0.6091 -0.5136
 1738UDC     C219109  18.943   5.062  11.980  0.8828  1.0731 -0.7990
 1738UDC     C319110  18.982   4.918  12.018 -0.4027  0.7894  0.1369
 1738UDC     C419111  18.860   4.831  12.050  0.5118 -0.0960  0.9505
 1738UDC     C519112  18.759   4.821  11.939  0.0837 -0.2442  0.3232
 1738UDC     C619113  18.625   4.830  12.009 -0.2525 -0.7540 -0.0886
 1738UDC     C719114  18.629   4.718  12.112  0.4192 -0.7109  0.3557
 1738UDC     C819115  18.496   4.683  12.189 -0.2416  1.4548 -0.3368
 1738UDC     C919116  18.386   4.637  12.097  0.5975 -0.8947  0.4658
 1738UDC    C1019117  18.251   4.598  12.157 -0.2770 -0.6814  0.1907
 1738UDC    C1119118  18.136   4.553  12.057  0.0793 -0.5390 -0.1096
 1739UDC     C119119   9.899  13.889  13.784  0.1367  0.0695  0.1944
 1739UDC     C219120  10.042  13.940  13.765  0.5229  1.2460  0.4385
 1739UDC     C319121  10.135  13.973  13.885  0.3075  0.3504 -0.2235
 1739UDC     C419122  10.075  14.079  13.971 -0.1937 -0.6179 -0.2820
 1739UDC     C519123  10.052  14.229  13.933  0.9233  0.4997 -0.1752
 1739UDC     C619124   9.927  14.255  13.848  0.1219  0.6421 -1.1335
 1739UDC     C719125   9.883  14.395  13.794 -0.6745  0.8091 -0.6113
 1739UDC     C819126   9.879  14.405  13.642  1.4920  0.1316  0.5553
 1739UDC     C919127   9.784  14.511  13.582 -0.6503 -0.5743  0.6720
 1739UDC    C1019128   9.639  14.498  13.630 -1.0632 -0.9117 -0.1310
 1739UDC    C1119129   9.549  14.622  13.575  1.0634 -0.1093  0.9584
 1740UDC     C119130   0.529  10.683  18.909  0.3606 -0.3744  0.6756
 1740UDC     C219131   0.425  10.686  18.799 -0.1308  0.7676 -0.2866
 1740UDC     C319132   0.341  10.814  18.827 -0.9929  0.5895 -0.1206
 1740UDC     C419133   0.436  10.932  18.803 -1.1770 -0.2621 -0.2261
 1740UDC     C519134   0.370  11.070  18.831  0.2849  0.1300  0.2082
 1740UDC     C619135   0.438  11.191  18.761 -1.2757 -0.3108  0.2991
 1740UDC     C719136   0.575  11.244  18.823 -0.0200 -0.5407 -0.9936
 1740UDC     C819137   0.613  11.390  18.771  0.1060  0.5036  0.9927
 1740UDC     C919138   0.754  11.446  18.817 -0.7038  0.1596  0.8258
 1740UDC    C1019139   0.765  11.588  18.775 -0.1375 -0.5285  0.1340
 1740UDC    C1119140   0.901  11.633  18.736 -0.2487  0.0234  1.4706
 1741UDC     C119141   1.824   4.247  10.800  0.0877 -0.3461  0.2846
 1741UDC     C219142   1.845   4.304  10.661 -0.0679 -0.7815  1.1269
 1741UDC     C319143   1.761   4.258  10.540 -0.0544 -0.1247 -0.5320
 1741UDC     C419144   1.613   4.305  10.541  0.1239  0.7237 -0.9073
 1741UDC     C519145   1.517   4.214  10.464  1.2709 -0.4452  1.0729
 1741UDC     C619146   1.375   4.259  10.496 -0.2414 -0.4075 -0.5881
 1741UDC     C719147   1.297   4.226  10.372 -1.4372 -0.3067  0.4287
 1741UDC     C819148   1.144   4.246  10.392  0.1590  0.2854 -0.1848
 1741UDC     C919149   1.066   4.255  10.263  0.5340 -1.0208  0.7175
 1741UDC    C1019150   0.918   4.253  10.289  0.8668 -0.0536  0.2483
 1741UDC    C1119151   0.899   4.111  10.346  0.4682 -1.0821 -0.3952
 1742UDC     C119152   4.802   9.639   4.351 -0.8480 -1.0702  0.1010
 1742UDC     C219153   4.683   9.552   4.398 -0.3565 -1.1557  0.1501
 1742UDC     C319154   4.578   9.514   4.289 -0.1969  0.1634  0.4342
 1742UDC     C419155   4.476   9.628   4.266  0.6063  0.3160  0.7535
 1742UDC     C519156   4.391   9.573   4.156  0.3038  0.7655  0.3528
 1742UDC     C619157   4.460   9.552   4.017 -0.1906 -0.0755 -0.4310
 1742UDC     C719158   4.385   9.476   3.915 -0.2865  0.0663 -0.6492
 1742UDC     C819159   4.284   9.575   3.854 -0.1235  0.3012 -0.1974
 1742UDC     C919160   4.338   9.714   3.813  0.6101  0.1634 -0.1793
 1742UDC    C1019161   4.448   9.703   3.706 -0.1195 -0.2794 -0.8407
 1742UDC    C1119162   4.459   9.823   3.614  0.7681  0.2010 -1.0009
 1743UDC     C119163  13.077   7.270  14.157 -0.0951  1.3400 -0.2333
 1743UDC     C219164  13.041   7.196  14.032 -0.4866  0.1402 -0.2728
 1743UDC     C319165  12.941   7.083  14.074  0.3213  0.3170 -0.0528
 1743UDC     C419166  13.008   6.940  14.086  0.2423 -0.1707  0.9378
 1743UDC     C519167  12.914   6.828  14.124  0.8243  0.2702  0.9080
 1743UDC     C619168  12.966   6.721  14.230 -0.0216 -0.4404  0.5069
 1743UDC     C719169  12.865   6.610  14.242  0.6847 -0.3340  1.3606
 1743UDC     C819170  12.728   6.665  14.278 -0.4767  0.2850 -0.9113
 1743UDC     C919171  12.605   6.574  14.320  0.3706 -0.8179 -1.6324
 1743UDC    C1019172  12.496   6.661  14.388  0.6687  1.2338  0.1861
 1743UDC    C1119173  12.452   6.653  14.543 -0.6961  0.2033 -0.6951
 1744UDC     C119174   0.003   0.655  14.807 -0.4478 -0.0163  0.3358
 1744UDC     C219175  -0.090   0.682  14.920  0.9294  0.3915  0.8621
 1744UDC     C319176  -0.016   0.699  15.054 -0.3547  0.5431  0.2324
 1744UDC     C419177  -0.093   0.747  15.177 -0.3627 -0.2078 -0.0106
 1744UDC     C519178  -0.160   0.885  15.154 -0.2568 -0.3505  0.9155
 1744UDC     C619179  -0.211   0.949  15.282 -0.6107  0.3582  0.8202
 1744UDC     C719180  -0.121   1.037  15.370  0.4214 -0.0943 -0.7882
 1744UDC     C819181  -0.020   0.962  15.461 -0.5483  0.3136  0.7593
 1744UDC     C919182   0.026   1.053  15.577  0.0324 -0.0121 -0.9845
 1744UDC    C1019183  -0.060   1.025  15.701  0.5034 -0.4874  0.6128
 1744UDC    C1119184  -0.006   1.115  15.810  0.4778 -0.1738  0.3927
 1745UDC     C119185  17.885   5.239   1.640 -0.7461 -0.8153  0.5976
 1745UDC     C219186  17.954   5.127   1.556 -0.5644  0.1632  0.2836
 1745UDC     C319187  18.031   5.171   1.428 -0.2482  0.6737  0.0703
 1745UDC     C419188  18.064   5.043   1.338 -0.2577 -0.0742 -0.2924
 1745UDC     C519189  18.141   5.083   1.211 -1.0927 -0.4165  0.2183
 1745UDC     C619190  18.185   4.962   1.127  0.6098 -0.0633  0.9572
 1745UDC     C719191  18.254   4.854   1.211  0.2596 -0.2138 -0.3264
 1745UDC     C819192  18.273   4.720   1.129  1.1421 -0.7514  0.7999
 1745UDC     C919193  18.145   4.643   1.110  1.2721  0.4008  0.0498
 1745UDC    C1019194  18.100   4.602   1.249  0.3657  0.4355  0.2030
 1745UDC    C1119195  18.195   4.508   1.333 -0.6308 -0.3249 -0.6694
 1746UDC     C119196  18.074  17.001  18.926  0.8002  0.3020  0.4749
 1746UDC     C219197  18.039  16.912  18.810 -0.2146  1.1025  0.3095
 1746UDC     C319198  17.889  16.901  18.793 -0.1814 -0.4669  0.0786
 1746UDC     C419199  17.790  16.879  18.909 -0.9884  0.5877  0.5631
 1746UDC     C519200  17.818  16.749  18.993  0.1066  0.0205  0.1711
 1746UDC     C619201  17.845  16.630  18.893  0.5461  0.3368  0.8157
 1746UDC     C719202  17.902  16.487  18.944 -0.0480 -0.4993 -0.5172
 1746UDC     C819203  17.981  16.399  18.838  0.1756  0.3506 -0.7966
 1746UDC     C919204  17.959  16.248  18.850 -0.2422  0.3584  0.1269
 1746UDC    C1019205  17.831  16.220  18.770 -0.5222  1.4738  0.1617
 1746UDC    C1119206  17.813  16.061  18.786  0.8058  0.7052 -0.8627
 1747UDC     C119207  16.513   2.297   3.443  0.7253  0.0023 -0.0412
 1747UDC     C219208  16.517   2.304   3.600 -0.0301 -0.1207 -0.4412
 1747UDC     C319209  16.563   2.167   3.666  0.0198 -0.8008  0.3930
 1747UDC     C419210  16.548   2.198   3.817  0.1697  0.6334  0.2187
 1747UDC     C519211  16.591   2.342   3.852  0.0692 -0.4903 -0.0821
 1747UDC     C619212  16.738   2.357   3.863 -0.9933  0.5198  0.1173
 1747UDC     C719213  16.789   2.497   3.904 -0.3863 -0.7940  0.2909
 1747UDC     C819214  16.790   2.528   4.057  0.0818 -0.3528 -0.3945
 1747UDC     C919215  16.868   2.644   4.109 -1.5305  1.3017 -0.7229
 1747UDC    C1019216  16.807   2.671   4.249 -0.4249  0.5729 -0.7770
 1747UDC    C1119217  16.840   2.572   4.360 -0.2743  0.4897 -0.5809
 1748UDC     C119218   9.437   4.766   4.436  0.6189 -0.2463  0.0704
 1748UDC     C219219   9.512   4.877   4.510  0.9249  0.0128  0.2164
 1748UDC     C319220   9.659   4.853   4.548  0.2686 -1.0721 -0.2656
 1748UDC     C419221   9.718   4.986   4.603 -0.2928  0.3605  0.1293
 1748UDC     C519222   9.778   5.082   4.501  0.6774 -0.7121 -0.4059
 1748UDC     C619223   9.913   5.154   4.529 -0.2110  0.1630 -0.6200
 1748UDC     C719224  10.032   5.058   4.566  0.0684  0.4167 -0.8532
 1748UDC     C819225  10.163   5.101   4.500  0.1467  0.1096 -0.4445
 1748UDC     C919226  10.285   5.000   4.515 -0.1301  1.3889  0.5620
 1748UDC    C1019227  10.407   5.084   4.467  0.5232  0.3924 -0.4500
 1748UDC    C1119228  10.536   5.035   4.528 -0.0110  0.1225 -0.8812
 1749UDC     C119229   7.472   8.023  14.255  0.2188  0.5237 -0.0228
 1749UDC     C219230   7.538   8.145  14.192  0.1800 -0.3657  0.6771
 1749UDC     C319231   7.452   8.273  14.161  1.0458  0.0008  1.2968
 1749UDC     C419232   7.517   8.411  14.125 -0.3583 -0.3254  0.4125
 1749UDC     C519233   7.643   8.451  14.200  0.0060 -0.7416 -1.2692
 1749UDC     C619234   7.716   8.585  14.163 -0.6432  0.1661  1.1521
 1749UDC     C719235   7.678   8.598  14.012  0.2161  0.2353  1.2783
 1749UDC     C819236   7.767   8.705  13.940  1.0145  0.4220  0.0452
 1749UDC     C919237   7.710   8.844  13.944  0.1030  0.7828  0.9752
 1749UDC    C1019238   7.559   8.821  13.914 -1.1482 -0.0186  0.7951
 1749UDC    C1119239   7.495   8.915  13.814 -0.7025 -0.5263  0.9894
 1750UDC     C119240   8.750   7.362  13.977  0.2586  0.0241  1.1984
 1750UDC     C219241   8.799   7.218  13.998  0.1669 -0.1030  0.8808
 1750UDC     C319242   8.880   7.196  13.868  0.9205 -1.0155 -0.0895
 1750UDC     C419243   9.006   7.282  13.857  0.4618  1.0413  0.3230
 1750UDC     C519244   9.062   7.298  13.710 -0.5012 -0.4835  0.5390
 1750UDC     C619245   9.134   7.161  13.676  0.0694  0.9780 -0.5138
 1750UDC     C719246   9.289   7.156  13.697  0.7597 -0.5125  0.9163
 1750UDC     C819247   9.332   7.011  13.661 -0.2752  0.0140  0.0125
 1750UDC     C919248   9.294   6.949  13.792 -0.7069 -0.6558  0.1856
 1750UDC    C1019249   9.386   6.830  13.832 -0.4715  0.3142 -0.4308
 1750UDC    C1119250   9.367   6.709  13.735  0.4440 -0.4008  0.0085
 1751UDC     C119251   2.968  17.381  17.231  0.5013 -0.6384 -0.8681
 1751UDC     C219252   3.036  17.239  17.230 -0.6341  0.2050  0.6264
 1751UDC     C319253   3.005  17.174  17.090 -0.3623  0.0382  0.4986
 1751UDC     C419254   3.053  17.029  17.071  0.4111  0.3744  0.8275
 1751UDC     C519255   3.035  16.982  16.927 -0.1613  0.1786 -0.0510
 1751UDC     C619256   3.167  17.022  16.859  0.1996  0.9884  1.4818
 1751UDC     C719257   3.176  17.021  16.707  0.3822  0.1377 -0.6849
 1751UDC     C819258   3.282  16.934  16.643 -0.1541  1.0591 -0.7004
 1751UDC     C919259   3.238  16.912  16.506 -0.4803 -0.2487  0.9046
 1751UDC    C1019260   3.349  16.836  16.443 -0.1669 -0.4089  0.2159
 1751UDC    C1119261   3.382  16.697  16.489 -0.7421 -0.8237 -0.6881
 1752UDC     C119262   3.756   1.186   3.437  0.4853 -0.4188 -0.0452
 1752UDC     C219263   3.841   1.183   3.303 -0.1374 -0.1900  0.2479
 1752UDC     C319264   3.934   1.305   3.284  0.0771 -1.4121 -0.4979
 1752UDC     C419265   4.020   1.335   3.149 -0.6655  0.0389 -0.4468
 1752UDC     C519266   4.122   1.450   3.157  1.0390 -0.6549  0.9952
 1752UDC     C619267   4.209   1.473   3.040 -1.3025  0.3942 -0.4225
 1752UDC     C719268   4.145   1.440   2.908  0.3562  0.4276  0.3865
 1752UDC     C819269   4.064   1.543   2.828 -0.0885  1.0101  0.9004
 1752UDC     C919270   3.984   1.481   2.711  0.3825  1.0726 -0.2839
 1752UDC    C1019271   3.859   1.542   2.653  1.3193  0.4205 -0.7241
 1752UDC    C1119272   3.801   1.446   2.544 -0.0574 -0.3171 -1.1783
 1753UDC     C119273   1.523  11.977  12.191 -0.5883 -0.0755 -0.2967
 1753UDC     C219274   1.647  11.891  12.221 -0.3999  0.0527  1.2958
 1753UDC     C319275   1.643  11.739  12.197 -0.4323 -0.0386 -0.6259
 1753UDC     C419276   1.536  11.647  12.266 -0.6241 -0.2038 -0.6356
 1753UDC     C519277   1.536  11.503  12.205 -1.4792  0.2904 -0.3145
 1753UDC     C619278   1.398  11.444  12.220  1.0019 -0.0422 -0.5945
 1753UDC     C719279   1.274  11.513  12.144 -0.6736  0.0312  0.0698
 1753UDC     C819280   1.147  11.430  12.157  0.0027  0.2047 -0.2746
 1753UDC     C919281   1.019  11.492  12.088  0.0676  0.6240 -0.7901
 1753UDC    C1019282   0.905  11.388  12.071  0.4208  0.5240 -0.0524
 1753UDC    C1119283   0.816  11.311  12.178  0.9038 -0.3497  0.4568
 1754UDC     C119284  16.845   3.519   4.895  1.5782  0.1395  0.9306
 1754UDC     C219285  16.756   3.404   4.835 -0.1855 -0.8180  0.3203
 1754UDC     C319286  16.778   3.265   4.897 -0.0125 -0.7655  0.1699
 1754UDC     C419287  16.669   3.168   4.845 -0.2658  0.0802  0.2766
 1754UDC     C519288  16.586   3.092   4.947 -1.0115  0.1905  0.0824
 1754UDC     C619289  16.650   2.956   5.005 -0.5875  0.0349  0.0577
 1754UDC     C719290  16.587   2.865   5.110 -0.6887 -0.6178 -0.3079
 1754UDC     C819291  16.459   2.802   5.058  1.1338 -0.1347 -0.4407
 1754UDC     C919292  16.395   2.709   5.168  0.1337  0.7256  0.3251
 1754UDC    C1019293  16.264   2.646   5.127 -0.6171 -0.4160 -0.5868
 1754UDC    C1119294  16.195   2.575   5.246 -0.9153  0.2293  0.0559
 1755UDC     C119295  13.813  15.682   8.800  0.4171 -0.7322  0.0607
 1755UDC     C219296  13.766  15.777   8.687 -0.0674 -1.0431  0.0494
 1755UDC     C319297  13.854  15.902   8.657  1.4757 -0.6194 -0.8893
 1755UDC     C419298  13.883  15.947   8.514  0.1326  0.4378 -0.7050
 1755UDC     C519299  13.986  15.868   8.426 -0.2614  0.3273 -1.2869
 1755UDC     C619300  14.003  15.937   8.290  0.0583  0.8344  0.7303
 1755UDC     C719301  13.875  15.905   8.211  0.2774 -0.9067  1.1798
 1755UDC     C819302  13.866  15.964   8.059  1.0659  0.5862 -1.1244
 1755UDC     C919303  13.992  15.967   7.969 -0.5730 -0.3581  1.1002
 1755UDC    C1019304  14.006  16.091   7.878  0.4362 -0.5412  1.1537
 1755UDC    C1119305  13.890  16.111   7.781 -0.6710 -0.2841  1.5110
 1756UDC     C119306   2.972  18.035  12.294 -1.1225  0.3229 -0.6320
 1756UDC     C219307   3.085  17.940  12.250 -0.4223  0.4702 -0.4122
 1756UDC     C319308   3.056  17.782  12.245  0.3009 -0.7381  0.8007
 1756UDC     C419309   3.021  17.723  12.381 -1.0606 -0.1045  0.8248
 1756UDC     C519310   3.002  17.576  12.367  0.0757  0.1803  0.1841
 1756UDC     C619311   2.862  17.510  12.352 -0.3776  0.2414  0.7208
 1756UDC     C719312   2.794  17.531  12.492 -0.4737  0.7985 -0.0603
 1756UDC     C819313   2.658  17.458  12.491  1.0821  0.3191 -0.6771
 1756UDC     C919314   2.574  17.509  12.377  0.0315  0.4878  0.0956
 1756UDC    C1019315   2.503  17.642  12.396 -0.1028  0.2065 -0.2670
 1756UDC    C1119316   2.419  17.640  12.530 -0.6968  1.1569 -0.7652
 1757UDC     C119317  18.089   3.424  16.369  0.4415 -0.3306  1.2990
 1757UDC     C219318  18.166   3.535  16.440 -0.7914  0.8981 -0.5164
 1757UDC     C319319  18.222   3.665  16.383 -0.3656  1.1682  0.6005
 1757UDC     C419320  18.207   3.787  16.475 -0.4694 -0.7675  1.0883
 1757UDC     C519321  18.329   3.851  16.531 -0.1054 -0.0882 -1.3431
 1757UDC     C619322  18.342   3.841  16.684 -0.6336  0.0205  0.0666
 1757UDC     C719323  18.490   3.799  16.708  1.0899 -0.4142 -1.0835
 1757UDC     C819324  18.584   3.906  16.666 -0.0384  0.2592 -0.3985
 1757UDC     C919325  18.724   3.896  16.727 -0.7427  0.8868 -0.8560
 1757UDC    C1019326  18.835   3.980  16.660 -0.1605 -0.0621 -0.5797
 1757UDC    C1119327  18.815   3.962  16.511 -1.0529  0.3603 -0.2183
 1758UDC     C119328  11.048  15.625  14.795 -0.0624  1.2681  0.2667
 1758UDC     C219329  11.074  15.542  14.670  0.0514 -1.1904  0.8086
 1758UDC     C319330  11.005  15.610  14.542 -0.6907  0.9099  0.6780
 1758UDC     C419331  10.861  15.569  14.521 -0.5794  0.3165  0.4552
 1758UDC     C519332  10.801  15.594  14.379  0.6099  0.1230 -0.0510
 1758UDC     C619333  10.754  15.740  14.343 -1.2338  0.3621 -0.3662
 1758UDC     C719334  10.604  15.772  14.349 -0.1835 -0.5755  0.0038
 1758UDC     C819335  10.585  15.909  14.286 -0.2144  0.4002  0.0209
 1758UDC     C919336  10.448  15.961  14.247  0.1159 -0.3161  0.2011
 1758UDC    C1019337  10.351  15.863  14.177 -1.0754  0.7800  0.5435
 1758UDC    C1119338  10.385  15.823  14.029 -0.2700  0.1031  0.3358
 1759UDC     C119339  14.293  11.266   4.997  0.8120 -0.2161  0.0409
 1759UDC     C219340  14.193  11.211   4.892  0.2376 -0.7421 -1.1339
 1759UDC     C319341  14.048  11.181   4.945 -0.1799 -0.2108 -0.8050
 1759UDC     C419342  13.974  11.305   5.006 -0.3463  0.1838  0.9556
 1759UDC     C519343  13.902  11.285   5.138 -0.9138  0.2988  0.3268
 1759UDC     C619344  13.886  11.411   5.218 -0.4451  0.0781  0.0892
 1759UDC     C719345  13.834  11.390   5.356 -0.2905 -0.5232 -0.0868
 1759UDC     C819346  13.715  11.292   5.362 -0.2659 -0.8350  1.2907
 1759UDC     C919347  13.694  11.249   5.506 -0.0885  0.4756 -0.2920
 1759UDC    C1019348  13.558  11.181   5.508 -0.3852  0.3672  0.5620
 1759UDC    C1119349  13.487  11.166   5.647  0.2411 -0.0776 -0.7668
 1760UDC     C119350  16.742  12.384  17.800  0.6690  0.2981  0.6994
 1760UDC     C219351  16.594  12.370  17.741 -1.0603 -0.9725  0.9133
 1760UDC     C319352  16.545  12.233  17.773  1.3769  1.0076  0.1279
 1760UDC     C419353  16.404  12.204  17.722  0.2333  0.2884  0.5543
 1760UDC     C519354  16.316  12.267  17.821  0.2898 -0.2078  0.9061
 1760UDC     C619355  16.261  12.167  17.917 -0.0489  0.1059 -0.6310
 1760UDC     C719356  16.147  12.210  18.013 -0.4681 -0.1084  0.3826
 1760UDC     C819357  16.063  12.100  18.082  0.2819  1.1155  0.3456
 1760UDC     C919358  15.929  12.175  18.105  0.9120  0.2023 -0.5258
 1760UDC    C1019359  15.800  12.093  18.091 -1.0450  1.1635  0.6131
 1760UDC    C1119360  15.842  11.943  18.111 -0.2979  1.1242  0.1012
 1761UDC     C119361   5.486   0.189   5.594 -0.7407  0.3614  0.1703
 1761UDC     C219362   5.416   0.058   5.625 -0.0208  1.3197 -0.7169
 1761UDC     C319363   5.382  -0.012   5.499 -0.0425 -0.7838 -0.1497
 1761UDC     C419364   5.313  -0.145   5.514 -1.3648  0.0888 -0.0087
 1761UDC     C519365   5.359  -0.226   5.394 -0.5382  0.5104 -0.5287
 1761UDC     C619366   5.320  -0.370   5.366  0.0836  0.2217  0.2256
 1761UDC     C719367   5.370  -0.414   5.233 -0.0882  0.9716  0.0003
 1761UDC     C819368   5.517  -0.380   5.197  0.5317 -0.1902 -0.2719
 1761UDC     C919369   5.567  -0.463   5.074 -0.3680 -0.7061 -0.7527
 1761UDC    C1019370   5.710  -0.424   5.030  0.2026  0.6520  0.0769
 1761UDC    C1119371   5.742  -0.455   4.884  0.9786  0.5173 -0.1040
 1762UDC     C119372  18.408   8.038   1.368 -0.3370 -0.6617 -1.0049
 1762UDC     C219373  18.417   7.977   1.224  0.5035 -1.6107  0.1101
 1762UDC     C319374  18.463   8.093   1.128 -0.6627 -0.6715  1.4480
 1762UDC     C419375  18.476   8.049   0.977 -0.1105 -1.0605 -0.3023
 1762UDC     C519376  18.502   8.165   0.870 -0.1754 -0.2423 -0.8036
 1762UDC     C619377  18.638   8.232   0.858  0.3936  0.5946  0.9995
 1762UDC     C719378  18.748   8.143   0.803  0.0452 -0.3446 -0.7908
 1762UDC     C819379  18.758   8.123   0.652 -0.3968 -0.0723 -1.2387
 1762UDC     C919380  18.701   7.993   0.594 -0.7378 -0.4428  0.4203
 1762UDC    C1019381  18.668   7.877   0.686  0.6119  0.0051 -0.7293
 1762UDC    C1119382  18.608   7.749   0.627 -0.4784 -0.1142  0.5247
 1763UDC     C119383   2.504  17.330   9.079  0.2258  0.1628 -0.5962
 1763UDC     C219384   2.378  17.289   9.005  0.4565  1.0261  0.6279
 1763UDC     C319385   2.252  17.363   9.065 -1.2693  0.3999 -0.5520
 1763UDC     C419386   2.118  17.297   9.043 -0.5400 -0.2688 -0.4432
 1763UDC     C519387   2.037  17.412   8.984  0.0141 -0.6941  0.5803
 1763UDC     C619388   1.890  17.376   8.973 -0.5248 -0.3135 -0.8969
 1763UDC     C719389   1.809  17.487   8.903 -0.1646  0.0164  0.0479
 1763UDC     C819390   1.664  17.525   8.961 -0.4527  0.2414  0.3713
 1763UDC     C919391   1.587  17.592   8.845 -1.1468  0.1155 -0.7843
 1763UDC    C1019392   1.504  17.522   8.739  0.2572 -0.0534  0.5203
 1763UDC    C1119393   1.399  17.607   8.669 -0.3041  0.2741 -0.4895
 1764UDC     C119394   1.998   0.799  12.992 -0.9854  0.7862  0.3899
 1764UDC     C219395   1.866   0.794  13.072 -0.1536 -1.0336 -0.3145
 1764UDC     C319396   1.753   0.882  13.007  0.0019  0.0067 -0.2924
 1764UDC     C419397   1.611   0.866  13.060 -0.4885  0.3057 -0.2553
 1764UDC     C519398   1.523   0.770  12.981  0.4787  0.5455  0.6351
 1764UDC     C619399   1.391   0.767  13.059  0.3923 -0.5649 -0.3752
 1764UDC     C719400   1.295   0.880  13.069 -0.0461 -0.3546  0.7642
 1764UDC     C819401   1.154   0.868  13.129 -1.6571  0.3648  0.4937
 1764UDC     C919402   1.084   0.994  13.075 -0.3376  0.2481 -0.5117
 1764UDC    C1019403   0.960   1.012  13.169  0.1167 -0.0268  0.3640
 1764UDC    C1119404   0.998   0.956  13.309 -0.2759  0.3863 -1.0391
 1765UDC     C119405   9.361  14.690  14.766 -0.7354 -0.5407 -1.0229
 1765UDC     C219406   9.469  14.613  14.839 -0.3289  0.8307  0.9876
 1765UDC     C319407   9.609  14.669  14.861  0.2454  0.8014 -0.0480
 1765UDC     C419408   9.702  14.571  14.932 -1.2997 -0.1731 -0.4709
 1765UDC     C519409   9.833  14.647  14.969  0.2917  0.7794  0.2597
 1765UDC     C619410   9.963  14.592  14.936  0.8071 -0.6845  0.4194
 1765UDC     C719411  10.090  14.682  14.943 -0.1504  0.1864  0.7621
 1765UDC     C819412  10.102  14.811  14.861  0.0381  0.2808 -0.8320
 1765UDC     C919413  10.240  14.877  14.890  0.0822  0.6141  0.0234
 1765UDC    C1019414  10.288  14.981  14.793  1.2397  0.5746  0.1961
 1765UDC    C1119415  10.252  14.924  14.657  0.9154 -0.1034  0.3494
 1766UDC     C119416   8.462   9.011  17.297  0.5989  0.3738 -0.3499
 1766UDC     C219417   8.609   8.950  17.301 -0.2169 -0.5809 -0.6380
 1766UDC     C319418   8.661   8.946  17.155 -0.5090 -0.4174 -1.1343
 1766UDC     C419419   8.561   8.864  17.074 -0.2448  0.1413  0.0142
 1766UDC     C519420   8.592   8.715  17.096  0.9124  0.1257 -0.2390
 1766UDC     C619421   8.486   8.622  17.036 -0.3059  0.4012  0.6211
 1766UDC     C719422   8.451   8.485  17.103 -0.3383  0.8241  0.4901
 1766UDC     C819423   8.575   8.433  17.180  0.9582  0.1194 -0.6075
 1766UDC     C919424   8.563   8.301  17.259 -0.1840 -0.5640  0.4504
 1766UDC    C1019425   8.683   8.213  17.233  0.2814 -0.2880  0.4706
 1766UDC    C1119426   8.692   8.116  17.350  1.3977  0.8015 -0.3596
 1767UDC     C119427   8.414  13.788  10.461 -0.0598 -0.3728  0.1246
 1767UDC     C219428   8.440  13.846  10.601 -1.3357  0.7367 -0.4529
 1767UDC     C319429   8.473  13.993  10.591  0.2514  0.1518  0.3422
 1767UDC     C419430   8.485  14.044  10.737  0.8059  0.1922  0.5994
 1767UDC     C519431   8.440  14.194  10.751  1.2255 -0.3992  0.4632
 1767UDC     C619432   8.514  14.285  10.647  0.0419 -0.9344 -0.5422
 1767UDC     C719433   8.478  14.438  10.673 -0.1190  0.0578  0.0327
 1767UDC     C819434   8.546  14.524  10.561 -0.6274  1.3383 -1.1087
 1767UDC     C919435   8.691  14.543  10.608  0.1416 -0.8471  0.3737
 1767UDC    C1019436   8.727  14.699  10.584  1.7624  0.9656  0.5674
 1767UDC    C1119437   8.642  14.796  10.660  0.9007  0.1093  1.5726
 1768UDC     C119438  17.148  18.992  15.259  0.4264  0.9579 -0.5939
 1768UDC     C219439  17.118  19.039  15.117 -0.0227  0.3103  0.7412
 1768UDC     C319440  17.151  18.930  15.008 -0.2136 -0.8087 -0.0067
 1768UDC     C419441  17.294  18.876  15.025  0.4312 -1.1337  0.3556
 1768UDC     C519442  17.343  18.778  14.912  0.4046  0.4885 -1.1772
 1768UDC     C619443  17.264  18.649  14.890  0.5763 -0.0817 -0.2292
 1768UDC     C719444  17.278  18.599  14.748  0.2210 -0.8887  0.2977
 1768UDC     C819445  17.157  18.611  14.662  0.4160 -0.3676  0.1996
 1768UDC     C919446  17.041  18.536  14.713  0.0347  0.1059 -0.0654
 1768UDC    C1019447  17.066  18.382  14.734  0.7207 -0.1227  0.2973
 1768UDC    C1119448  16.950  18.277  14.724 -0.7200 -0.7598  0.0530
 1769UDC     C119449  17.991  15.378   4.567  1.0386 -0.0648 -0.6743
 1769UDC     C219450  17.943  15.239   4.608 -0.5345  1.2533  0.0803
 1769UDC     C319451  17.918  15.150   4.485 -0.3843  0.4137 -0.2516
 1769UDC     C419452  18.040  15.100   4.403 -0.7027 -0.5422  0.8789
 1769UDC     C519453  18.031  15.154   4.258 -0.3870 -1.0380 -0.5163
 1769UDC     C619454  17.930  15.075   4.165  0.6258 -0.2944 -0.0522
 1769UDC     C719455  17.992  14.933   4.133  0.1017 -0.3129 -1.1559
 1769UDC     C819456  17.946  14.867   4.007 -0.0194  0.6340  0.7698
 1769UDC     C919457  18.045  14.749   3.963  0.0238 -0.4461 -0.2645
 1769UDC    C1019458  17.966  14.667   3.858 -0.2513 -0.0530 -0.0635
 1769UDC    C1119459  17.986  14.719   3.717 -0.0809 -0.5091 -0.4159
 1770UDC     C119460  16.863   5.036   2.463  0.2518 -0.3439  0.0700
 1770UDC     C219461  17.006   5.044   2.508 -1.1189  0.5965  0.7023
 1770UDC     C319462  17.073   5.182   2.508  0.6873  0.3562  0.7786
 1770UDC     C419463  17.214   5.168   2.557  0.7791  0.7844 -0.9338
 1770UDC     C519464  17.317   5.252   2.481  0.7471  0.6587 -0.1241
 1770UDC     C619465  17.449   5.172   2.501  0.5416 -0.1244 -1.0579
 1770UDC     C719466  17.578   5.206   2.425 -0.3267  0.4728  0.0211
 1770UDC     C819467  17.709   5.132   2.453 -0.4022 -0.2006 -0.3370
 1770UDC     C919468  17.818   5.174   2.351 -0.3847  0.6168 -0.8921
 1770UDC    C1019469  17.916   5.246   2.438  0.0270 -0.1702  0.7375
 1770UDC    C1119470  18.028   5.311   2.348 -0.2051  0.5217 -0.6318
 1771UDC     C119471  15.414   7.729   8.318 -0.2632  0.0547  0.3767
 1771UDC     C219472  15.560   7.735   8.274  0.1518  0.1835 -0.3731
 1771UDC     C319473  15.619   7.875   8.241  0.0574 -0.5484  0.2813
 1771UDC     C419474  15.749   7.881   8.158 -0.2836 -0.3367 -0.8268
 1771UDC     C519475  15.809   8.019   8.188 -1.0986  0.0063  0.5788
 1771UDC     C619476  15.779   8.138   8.101 -0.8150  1.0326 -0.1125
 1771UDC     C719477  15.873   8.256   8.115 -0.8147 -0.6780  0.7777
 1771UDC     C819478  16.023   8.237   8.075  0.1947  0.4365 -0.2091
 1771UDC     C919479  16.093   8.372   8.037  0.0758  1.3349 -0.7459
 1771UDC    C1019480  16.008   8.457   7.954  0.1121 -0.2451 -2.4893
 1771UDC    C1119481  16.054   8.603   7.931  0.2172 -0.2204 -0.9607
 1772UDC     C119482  15.954   3.243  16.582 -1.1198  0.7854 -0.3695
 1772UDC     C219483  15.878   3.116  16.616  0.2631  0.5069  0.0695
 1772UDC     C319484  15.803   3.131  16.751 -0.7482 -0.3214 -1.0487
 1772UDC     C419485  15.729   3.262  16.770 -0.7334  1.1644 -1.3727
 1772UDC     C519486  15.709   3.305  16.919 -0.0918 -0.5926 -0.3151
 1772UDC     C619487  15.598   3.216  16.984 -0.2433 -0.2027 -0.8041
 1772UDC     C719488  15.543   3.270  17.121  0.1060 -1.1546  0.0746
 1772UDC     C819489  15.418   3.195  17.162  0.5872 -1.5092 -0.5192
 1772UDC     C919490  15.317   3.245  17.061  0.5242 -0.5957 -0.8512
 1772UDC    C1019491  15.167   3.210  17.089 -0.8237  0.5697 -0.2849
 1772UDC    C1119492  15.078   3.308  17.019  0.9326 -0.0935 -0.5168
 1773UDC     C119493  16.626   5.539   2.701  0.4871 -0.1149  0.0415
 1773UDC     C219494  16.608   5.620   2.835  0.8287  0.2584  0.0394
 1773UDC     C319495  16.702   5.742   2.842  0.3534 -0.3938  1.2054
 1773UDC     C419496  16.700   5.823   2.970 -1.0339 -1.3146 -0.0839
 1773UDC     C519497  16.789   5.771   3.086 -0.7442 -0.6551  0.0345
 1773UDC     C619498  16.751   5.831   3.221  0.3227  0.5989 -1.1139
 1773UDC     C719499  16.604   5.808   3.263 -0.8698 -0.3561 -0.8640
 1773UDC     C819500  16.572   5.862   3.405 -0.6539  0.0118 -0.9039
 1773UDC     C919501  16.584   5.772   3.525  0.3413  0.8096  0.0878
 1773UDC    C1019502  16.528   5.629   3.526 -0.1622  0.0348 -0.5157
 1773UDC    C1119503  16.595   5.528   3.623 -2.0951 -0.7885  0.1575
 1774UDC     C119504  11.914  11.787   7.169  0.3797  0.1531 -0.1741
 1774UDC     C219505  12.026  11.827   7.079 -0.1400 -0.3095  1.7778
 1774UDC     C319506  12.159  11.772   7.123 -0.5542 -0.2824  0.0892
 1774UDC     C419507  12.228  11.839   7.244 -0.8618 -0.7702 -0.0764
 1774UDC     C519508  12.305  11.752   7.339 -0.8504  0.1877 -0.5103
 1774UDC     C619509  12.206  11.681   7.432  1.5226 -0.2789  0.0456
 1774UDC     C719510  12.247  11.631   7.575  0.1849 -0.2013 -0.8991
 1774UDC     C819511  12.378  11.551   7.560 -0.5019 -0.2731  0.3808
 1774UDC     C919512  12.463  11.540   7.684 -0.8438 -0.5086 -0.5351
 1774UDC    C1019513  12.536  11.666   7.745  0.1481 -0.2631 -0.4277
 1774UDC    C1119514  12.452  11.785   7.811  0.2424  0.8498  0.5832
 1775UDC     C119515  17.288  13.151  13.392 -0.8517 -1.0226  0.3758
 1775UDC     C219516  17.292  13.235  13.257 -1.5891  0.9270  0.4410
 1775UDC     C319517  17.170  13.332  13.228  0.3823  0.1899  0.7254
 1775UDC     C419518  17.204  13.436  13.108  0.5261 -0.1269 -0.1122
 1775UDC     C519519  17.303  13.544  13.162 -0.2643 -0.0865  0.2874
 1775UDC     C619520  17.348  13.666  13.072 -0.0605 -0.1850  0.9989
 1775UDC     C719521  17.447  13.762  13.138  0.1828 -2.3087 -0.2517
 1775UDC     C819522  17.371  13.815  13.258 -0.4248 -0.5700  0.5132
 1775UDC     C919523  17.236  13.891  13.243 -0.0629  0.6269  0.1556
 1775UDC    C1019524  17.180  13.945  13.374 -0.2456 -0.0192 -0.6001
 1775UDC    C1119525  17.286  14.021  13.455  0.4734  0.1253 -0.1600
 1776UDC     C119526   0.354  15.653  13.114 -0.0374  0.3202  0.1636
 1776UDC     C219527   0.299  15.750  13.005  0.2915 -0.5428  0.5100
 1776UDC     C319528   0.363  15.801  12.869 -1.2267  0.2134 -0.1290
 1776UDC     C419529   0.275  15.785  12.744  1.4578 -1.1370  0.3767
 1776UDC     C519530   0.343  15.760  12.610  0.3897  0.8407  0.6963
 1776UDC     C619531   0.276  15.852  12.509 -0.5530  0.4992 -0.6962
 1776UDC     C719532   0.278  15.808  12.369 -0.0954 -0.7565 -0.1987
 1776UDC     C819533   0.187  15.892  12.270 -0.6340 -0.0392  0.0977
 1776UDC     C919534   0.128  15.837  12.142  0.0998  0.1127  0.2914
 1776UDC    C1019535   0.017  15.913  12.069  1.3104 -1.0297 -0.1892
 1776UDC    C1119536  -0.002  15.914  11.917 -0.5925 -0.5356 -0.4042
 1777UDC     C119537   8.735  19.184  18.411 -0.2673  0.0427  0.9871
 1777UDC     C219538   8.638  19.145  18.293 -1.3395  0.3039  0.2187
 1777UDC     C319539   8.672  18.999  18.261 -0.5192  0.3897  0.6194
 1777UDC     C419540   8.798  18.978  18.182 -0.0232  1.1026  0.2650
 1777UDC     C519541   8.808  19.023  18.028  0.0769  1.2038  0.8024
 1777UDC     C619542   8.923  18.972  17.942 -0.6019  0.4676 -0.2148
 1777UDC     C719543   9.068  18.972  17.992  1.0304  0.7317  0.8766
 1777UDC     C819544   9.119  19.096  18.067 -0.5699 -0.9646  0.1565
 1777UDC     C919545   9.229  19.066  18.173  0.3872 -1.2158  0.2810
 1777UDC    C1019546   9.292  19.183  18.261  0.4307 -0.1084 -0.0967
 1777UDC    C1119547   9.396  19.136  18.367 -0.8421 -0.2748 -0.8914
 1778UDC     C119548   7.587   4.674   8.164 -1.0754  0.7185  0.4305
 1778UDC     C219549   7.554   4.591   8.040 -0.0830 -0.2350 -0.0411
 1778UDC     C319550   7.413   4.541   8.050  0.3705 -0.1043  0.6408
 1778UDC     C419551   7.374   4.479   7.911  0.3973  0.9528 -0.8998
 1778UDC     C519552   7.377   4.567   7.784 -1.1414 -0.1138 -0.2071
 1778UDC     C619553   7.307   4.493   7.665 -1.3400 -0.5825  0.7247
 1778UDC     C719554   7.275   4.580   7.542  0.6213 -0.0641  0.8178
 1778UDC     C819555   7.225   4.527   7.409  1.1517  0.5624  0.1639
 1778UDC     C919556   7.226   4.624   7.298  1.0670 -0.2189  0.2442
 1778UDC    C1019557   7.258   4.574   7.158  0.1005  0.5314  0.7493
 1778UDC    C1119558   7.410   4.531   7.133  0.1692  0.2442  0.5001
 1779UDC     C119559  19.808  17.611  11.273 -0.2381  1.1460  0.0781
 1779UDC     C219560  19.855  17.730  11.195  0.4306 -0.3088  0.7475
 1779UDC     C319561  19.777  17.859  11.229  1.0002  0.2952  0.4538
 1779UDC     C419562  19.845  17.981  11.164 -0.0810  0.0551 -0.1723
 1779UDC     C519563  19.779  18.098  11.245 -0.3950  0.3165 -0.2575
 1779UDC     C619564  19.806  18.093  11.395  0.4986  0.9750  0.9053
 1779UDC     C719565  19.953  18.131  11.410 -0.6370  0.4198  1.1211
 1779UDC     C819566  19.987  18.124  11.560 -0.2243 -0.3233  0.6346
 1779UDC     C919567  20.081  18.238  11.604 -0.2805 -0.4939 -0.3187
 1779UDC    C1019568  20.078  18.265  11.756 -0.0496  0.7994  0.6987
 1779UDC    C1119569  20.137  18.403  11.783 -1.2881 -0.2067 -0.3207
 1780UDC     C119570   4.206  11.179  18.639 -0.3377 -0.1666  0.1714
 1780UDC     C219571   4.216  11.201  18.797  0.2112  0.6749 -0.0072
 1780UDC     C319572   4.100  11.264  18.872 -0.0568  0.0514  0.4296
 1780UDC     C419573   4.053  11.180  18.996  0.3713  0.2194 -0.1542
 1780UDC     C519574   4.143  11.200  19.116 -0.8191  0.2680  0.6525
 1780UDC     C619575   4.087  11.303  19.220 -1.2125 -0.0667  0.8703
 1780UDC     C719576   4.201  11.300  19.327 -0.4968 -1.2211 -0.2303
 1780UDC     C819577   4.195  11.407  19.441  0.2530  1.0765  0.2159
 1780UDC     C919578   4.323  11.416  19.537  0.2925  0.3051  0.2375
 1780UDC    C1019579   4.276  11.484  19.667 -1.3726 -0.8046  0.4048
 1780UDC    C1119580   4.149  11.564  19.654  0.3597  0.2071  0.3202
 1781UDC     C119581   1.850  12.287   2.698 -0.5985 -0.1152  0.4816
 1781UDC     C219582   1.877  12.160   2.783  0.3333 -0.9414 -0.1191
 1781UDC     C319583   1.866  12.033   2.706  0.2291  0.1033  0.0253
 1781UDC     C419584   1.892  11.931   2.815 -0.4850 -0.6658  0.2682
 1781UDC     C519585   2.049  11.893   2.825  0.5575  0.5413  0.0723
 1781UDC     C619586   2.094  11.789   2.932  0.1173  0.6975  0.6560
 1781UDC     C719587   2.105  11.850   3.078  0.9323  0.5587  0.4380
 1781UDC     C819588   2.201  11.967   3.093 -0.9813  0.4072 -0.2139
 1781UDC     C919589   2.349  11.936   3.053 -0.4640 -0.4947  1.0300
 1781UDC    C1019590   2.426  12.066   3.020  0.1074 -1.1616 -0.9337
 1781UDC    C1119591   2.454  12.134   3.155  0.0297 -0.0419 -0.0397
 1782UDC     C119592   2.779  16.658  13.842  0.2700 -0.6477  0.0688
 1782UDC     C219593   2.816  16.801  13.806  0.2187  0.5909 -0.2698
 1782UDC     C319594   2.719  16.904  13.882  0.1340  0.8910  0.2458
 1782UDC     C419595   2.773  16.887  14.029  0.1148 -0.3975 -0.3721
 1782UDC     C519596   2.707  16.975  14.141  0.7237 -0.2250 -0.1150
 1782UDC     C619597   2.618  17.095  14.095  0.6484  0.1164  0.8211
 1782UDC     C719598   2.552  17.153  14.224 -0.7625  0.3718 -0.3926
 1782UDC     C819599   2.498  17.282  14.181  0.1679 -0.6415  0.0733
 1782UDC     C919600   2.443  17.377  14.295 -0.1009  1.5923  0.6856
 1782UDC    C1019601   2.329  17.309  14.381  0.5274 -0.2639  0.4115
 1782UDC    C1119602   2.199  17.293  14.317 -0.4260  0.5150 -0.3529
 1783UDC     C119603   3.685  18.919  16.516  0.1772  0.4153 -0.3534
 1783UDC     C219604   3.791  18.969  16.417 -1.3840 -0.7006  0.4967
 1783UDC     C319605   3.744  19.087  16.320 -0.6227 -0.6568 -0.1390
 1783UDC     C419606   3.854  19.142  16.227 -0.0850  0.3383 -1.6070
 1783UDC     C519607   3.878  19.092  16.090  0.2829  0.0732 -0.6895
 1783UDC     C619608   3.850  18.948  16.051 -0.2627 -0.3649  0.2502
 1783UDC     C719609   3.932  18.891  15.940  1.0565  0.1546  1.6315
 1783UDC     C819610   3.856  18.788  15.849  0.0972 -0.1535 -0.2064
 1783UDC     C919611   3.740  18.825  15.755 -0.0750 -0.8064 -0.2836
 1783UDC    C1019612   3.687  18.701  15.688  0.7935  0.2024 -0.6024
 1783UDC    C1119613   3.554  18.629  15.733 -0.3178 -0.1425  0.6717
 1784UDC     C119614   9.612   9.150   9.603  0.3195 -0.1723  0.0393
 1784UDC     C219615   9.654   9.206   9.740  0.0578 -0.0392  0.9194
 1784UDC     C319616   9.762   9.310   9.742 -0.9652 -0.3489  0.9067
 1784UDC     C419617   9.759   9.375   9.885  0.7109  1.0377 -0.2329
 1784UDC     C519618   9.870   9.469   9.917  1.2804 -0.2086  0.7753
 1784UDC     C619619   9.880   9.522  10.057 -0.4774 -0.2506  0.0045
 1784UDC     C719620   9.822   9.660  10.055 -0.2366  0.4640 -0.0166
 1784UDC     C819621   9.871   9.727   9.925  0.8122  0.7060  0.3407
 1784UDC     C919622   9.797   9.856   9.880 -0.1078 -0.1379 -0.4077
 1784UDC    C1019623   9.647   9.856   9.929 -0.6441 -0.3833 -0.7386
 1784UDC    C1119624   9.569   9.977   9.895 -0.6921 -0.0988 -0.1657
 1785UDC     C119625  13.279   7.090  14.448  0.6142  0.3001  0.1278
 1785UDC     C219626  13.221   7.204  14.533  1.3253 -0.5014 -0.4705
 1785UDC     C319627  13.301   7.233  14.662 -0.0977  0.4695  0.0370
 1785UDC     C419628  13.409   7.340  14.644 -0.1815 -0.3701 -0.6187
 1785UDC     C519629  13.552   7.293  14.658  0.0972  1.1931 -0.0811
 1785UDC     C619630  13.648   7.398  14.601 -0.7033 -0.3851 -0.0975
 1785UDC     C719631  13.601   7.537  14.624 -1.2489  0.4201 -0.6980
 1785UDC     C819632  13.693   7.646  14.596  0.1282 -0.3716 -0.3672
 1785UDC     C919633  13.654   7.786  14.651 -0.5377  0.0078 -0.8497
 1785UDC    C1019634  13.749   7.897  14.614 -0.7310  0.5190 -0.6160
 1785UDC    C1119635  13.711   8.026  14.684  0.0590 -0.2092 -0.4834
 1786UDC     C119636  19.107   9.250  15.384  0.3083 -0.0158  0.1017
 1786UDC     C219637  19.056   9.382  15.446 -0.3751  0.1580 -0.0188
 1786UDC     C319638  19.029   9.392  15.597 -0.3119 -1.1786 -0.9342
 1786UDC     C419639  19.008   9.537  15.651  0.0986  0.6235  0.0149
 1786UDC     C519640  19.052   9.558  15.797 -0.0292 -0.1059  0.7734
 1786UDC     C619641  19.158   9.461  15.845 -0.9271 -1.3091 -0.0792
 1786UDC     C719642  19.201   9.505  15.985 -0.3199 -0.3848 -0.0107
 1786UDC     C819643  19.249   9.383  16.065 -0.4957 -0.6549 -1.1580
 1786UDC     C919644  19.196   9.386  16.206  0.1664 -0.0340 -1.6498
 1786UDC    C1019645  19.264   9.501  16.282  0.8359 -0.6517 -0.1657
 1786UDC    C1119646  19.230   9.586  16.415 -0.0198  0.4675 -0.0399
 1787UDC     C119647  13.065  10.547  19.439 -0.1834 -0.0397 -0.2106
 1787UDC     C219648  12.937  10.458  19.472 -0.4094 -0.6905  0.2316
 1787UDC     C319649  12.832  10.460  19.366  0.3157  0.7289 -0.3862
 1787UDC     C419650  12.708  10.382  19.402  0.7832  0.5813  0.2655
 1787UDC     C519651  12.630  10.398  19.270 -0.3204  1.6483 -0.2056
 1787UDC     C619652  12.521  10.282  19.276 -0.0065 -0.0091 -0.6036
 1787UDC     C719653  12.570  10.133  19.285 -0.1367 -0.4636  1.1138
 1787UDC     C819654  12.455  10.044  19.325 -1.2462  0.0348  0.0792
 1787UDC     C919655  12.335  10.081  19.241 -0.7630 -0.1470  0.8133
 1787UDC    C1019656  12.228   9.971  19.202 -0.4894 -0.6417 -0.5318
 1787UDC    C1119657  12.257   9.878  19.089 -0.0685  0.5385  0.2348
 1788UDC     C119658   9.684  13.834   7.572 -0.3768 -0.6399  0.7763
 1788UDC     C219659   9.701  13.700   7.497  0.1650 -0.4204 -0.4017
 1788UDC     C319660   9.745  13.579   7.578  0.8768  0.5172 -0.2737
 1788UDC     C419661   9.890  13.567   7.611  0.4853  0.6806 -1.1322
 1788UDC     C519662   9.948  13.444   7.693  0.3077  0.0397 -0.1153
 1788UDC     C619663   9.901  13.415   7.836  0.4181 -0.7974 -0.8098
 1788UDC     C719664   9.988  13.307   7.912  1.0192 -0.2846  1.1885
 1788UDC     C819665   9.931  13.272   8.047  0.2674 -0.2632 -0.7998
 1788UDC     C919666  10.013  13.185   8.142 -0.0733  0.4436 -0.1052
 1788UDC    C1019667   9.932  13.075   8.202 -0.0732  0.9434 -0.2672
 1788UDC    C1119668  10.028  12.960   8.252  0.9171 -0.4918 -0.3082
 1789UDC     C119669   5.109  12.007  10.748  0.3941 -0.5170  0.1227
 1789UDC     C219670   5.208  12.112  10.822  0.1377 -0.3322  1.0696
 1789UDC     C319671   5.162  12.158  10.961 -0.0970  0.0525 -0.0076
 1789UDC     C419672   5.235  12.296  10.979 -0.8624  0.8843 -0.4665
 1789UDC     C519673   5.254  12.329  11.128  0.4060 -0.7400 -0.0841
 1789UDC     C619674   5.353  12.453  11.154 -0.0945 -0.1374 -0.6362
 1789UDC     C719675   5.480  12.401  11.229  0.2397 -1.3835  0.3170
 1789UDC     C819676   5.582  12.512  11.254 -0.2204  0.7103  0.2205
 1789UDC     C919677   5.723  12.446  11.266 -0.2799 -0.7265  0.3038
 1789UDC    C1019678   5.826  12.554  11.301 -0.1692  0.2274 -0.1547
 1789UDC    C1119679   5.974  12.503  11.305  0.2273 -0.2037 -0.3836
 1790UDC     C119680  16.772   5.185   6.779  0.7578 -0.8274  0.1339
 1790UDC     C219681  16.805   5.037   6.772 -0.9417  0.0411  0.1252
 1790UDC     C319682  16.808   4.950   6.898  0.6819  0.0424 -1.1466
 1790UDC     C419683  16.927   4.860   6.899  0.5088  1.1083  0.6229
 1790UDC     C519684  16.994   4.864   7.033 -0.8413  0.9220  0.3933
 1790UDC     C619685  16.896   4.819   7.150 -0.9161  0.6253  0.4838
 1790UDC     C719686  16.821   4.677   7.138 -0.0500  0.0088  0.4598
 1790UDC     C819687  16.909   4.556   7.126 -0.2068  0.6649  0.1705
 1790UDC     C919688  16.960   4.506   7.264 -0.1871  0.7759 -0.7350
 1790UDC    C1019689  17.044   4.374   7.268 -1.3412 -0.7392 -0.3949
 1790UDC    C1119690  17.060   4.303   7.405 -0.0124  0.8837 -0.3265
 1791UDC     C119691  18.289   8.821  15.768 -0.1269  0.6308 -0.3671
 1791UDC     C219692  18.263   8.944  15.859 -0.3552 -0.6593  0.8939
 1791UDC     C319693  18.128   9.005  15.827  0.3954 -0.4791  0.9511
 1791UDC     C419694  18.094   9.097  15.945 -0.1876  0.0089  0.5640
 1791UDC     C519695  17.946   9.144  15.921  0.5582  0.5961  0.5093
 1791UDC     C619696  17.926   9.275  16.001 -1.1459  1.2084 -1.0570
 1791UDC     C719697  17.787   9.344  16.013 -0.1042  0.3199 -1.5424
 1791UDC     C819698  17.796   9.482  16.088 -0.9339  0.4262 -0.8556
 1791UDC     C919699  17.692   9.579  16.050  0.3464 -0.5496  0.6482
 1791UDC    C1019700  17.563   9.553  16.129 -0.4347 -0.7583  0.2998
 1791UDC    C1119701  17.457   9.639  16.064  0.2921 -0.3659  0.1602
 1792UDC     C119702  16.118   3.170   6.585 -0.1012 -0.8699  0.9722
 1792UDC     C219703  16.264   3.195   6.547  0.0675 -0.2505  0.7675
 1792UDC     C319704  16.353   3.250   6.654 -0.8728 -1.1892 -0.5428
 1792UDC     C419705  16.493   3.286   6.612  0.3204 -0.5268 -0.8699
 1792UDC     C519706  16.510   3.416   6.531  0.5763  0.0035 -0.0566
 1792UDC     C619707  16.638   3.456   6.458 -0.4498  0.4309 -0.0436
 1792UDC     C719708  16.652   3.614   6.444 -0.2511  0.0915 -0.3895
 1792UDC     C819709  16.744   3.685   6.537 -0.0609 -0.6127  1.1143
 1792UDC     C919710  16.822   3.800   6.468 -1.0004 -0.1472 -0.8874
 1792UDC    C1019711  16.906   3.880   6.566  0.3344  0.8218  0.3572
 1792UDC    C1119712  16.839   3.964   6.675 -0.2716  0.6810 -0.2424
 1793UDC     C119713   9.377  18.115  18.339 -0.5048 -0.8600 -0.7949
 1793UDC     C219714   9.416  17.996  18.247 -0.3046 -1.0718 -0.6842
 1793UDC     C319715   9.376  18.022  18.101  0.0127 -0.2972 -1.1207
 1793UDC     C419716   9.468  17.951  18.008 -0.3717 -0.8283 -0.1136
 1793UDC     C519717   9.442  18.023  17.873  0.2551 -0.0168  0.8637
 1793UDC     C619718   9.563  18.051  17.790 -0.5056  0.6226 -0.0224
 1793UDC     C719719   9.638  17.930  17.729  0.2764 -0.4769 -0.6449
 1793UDC     C819720   9.546  17.821  17.668 -0.3727 -0.7541 -0.8207
 1793UDC     C919721   9.516  17.845  17.520  0.6031 -0.2374 -0.5254
 1793UDC    C1019722   9.385  17.772  17.471 -0.5873  0.1417 -0.1194
 1793UDC    C1119723   9.320  17.842  17.358 -0.9074  0.3535  0.1822
 1794UDC     C119724  17.700   5.469   7.803  0.4570  1.4691 -0.2622
 1794UDC     C219725  17.670   5.581   7.705  0.3195  0.5801 -0.6755
 1794UDC     C319726  17.743   5.706   7.742  0.7586  0.6477 -1.4416
 1794UDC     C419727  17.892   5.661   7.742 -0.3264 -1.2459  0.4211
 1794UDC     C519728  17.973   5.766   7.820  0.8476  0.1286 -0.8463
 1794UDC     C619729  18.018   5.729   7.961 -0.6033  0.7069 -1.4748
 1794UDC     C719730  18.135   5.623   7.953  0.2727 -0.1247  0.1762
 1794UDC     C819731  18.246   5.653   7.853  1.1805 -0.3934  0.5666
 1794UDC     C919732  18.326   5.772   7.902  0.1763 -0.0284 -1.0061
 1794UDC    C1019733  18.409   5.843   7.794 -0.5000  1.0867  0.5817
 1794UDC    C1119734  18.489   5.741   7.716 -0.2627 -1.1713 -0.5670
 1795UDC     C119735  17.747   4.364   7.009 -1.4501  0.8303  0.7785
 1795UDC     C219736  17.882   4.369   7.093  0.1801 -0.7268  0.6649
 1795UDC     C319737  17.993   4.267   7.072  0.6117 -0.1945 -0.8163
 1795UDC     C419738  17.985   4.128   7.142  0.4979 -0.6759  0.3253
 1795UDC     C519739  18.069   4.014   7.092 -0.4989 -0.3422  0.4631
 1795UDC     C619740  18.209   4.050   7.046 -0.0433 -0.7722  0.3386
 1795UDC     C719741  18.285   3.920   7.012 -0.7840 -0.9408  0.0192
 1795UDC     C819742  18.419   3.931   6.935  0.3636  0.0576 -0.1014
 1795UDC     C919743  18.546   3.963   7.012  0.5418 -0.4994 -0.8978
 1795UDC    C1019744  18.684   3.989   6.944  0.9679  0.6464  0.8925
 1795UDC    C1119745  18.781   4.045   7.045 -0.5541  0.2047 -0.3130
 1796UDC     C119746   7.579   8.680  18.531  0.4475 -0.3203  0.0714
 1796UDC     C219747   7.730   8.698  18.569 -0.1982  0.6631 -0.3463
 1796UDC     C319748   7.757   8.846  18.585  1.0343  0.0553 -0.7406
 1796UDC     C419749   7.684   8.927  18.696 -1.0336 -0.3734 -0.5387
 1796UDC     C519750   7.731   9.074  18.675  1.0179  0.4611 -0.0941
 1796UDC     C619751   7.774   9.094  18.525  0.6393 -0.9860 -0.0220
 1796UDC     C719752   7.672   9.151  18.427 -0.3594  0.2915 -0.6509
 1796UDC     C819753   7.567   9.244  18.492  0.5056  0.3090 -0.2239
 1796UDC     C919754   7.476   9.324  18.397  0.4135  0.8588  0.3615
 1796UDC    C1019755   7.367   9.254  18.308  0.1458  0.2895 -0.8372
 1796UDC    C1119756   7.412   9.163  18.193  0.2616 -0.3438 -0.1196
 1797UDC     C119757   0.042   2.798   2.517 -0.5195 -0.2337 -0.1891
 1797UDC     C219758   0.043   2.938   2.582 -0.3759 -0.1064  0.4196
 1797UDC     C319759  -0.059   2.957   2.696 -0.3651 -0.3843 -0.4730
 1797UDC     C419760  -0.048   3.100   2.754 -0.0106 -0.0023 -0.3186
 1797UDC     C519761  -0.160   3.128   2.866 -0.3449 -0.0670  0.6768
 1797UDC     C619762  -0.150   3.229   2.981 -0.3166  1.1320  0.2251
 1797UDC     C719763  -0.283   3.298   3.017  0.5321  1.1997 -0.5801
 1797UDC     C819764  -0.291   3.375   3.152 -0.5441 -0.4208  0.4540
 1797UDC     C919765  -0.395   3.480   3.179 -0.0533 -0.5950  0.3224
 1797UDC    C1019766  -0.407   3.504   3.334  0.2794  0.4746  0.2806
 1797UDC    C1119767  -0.352   3.637   3.394  1.0474  0.2538 -0.0122
 1798UDC     C119768  14.645   0.091   2.746  0.2317 -0.0767 -0.6213
 1798UDC     C219769  14.673   0.228   2.797 -0.2897 -0.8223 -0.8131
 1798UDC     C319770  14.814   0.288   2.783 -0.9131  0.5741 -0.5838
 1798UDC     C419771  14.902   0.232   2.894 -0.2902  0.3186 -1.3060
 1798UDC     C519772  15.050   0.288   2.909 -0.8968  0.0935 -0.3156
 1798UDC     C619773  15.136   0.229   3.021  0.4440  0.0114 -0.1023
 1798UDC     C719774  15.085   0.089   3.061 -0.6654  0.1801  0.8178
 1798UDC     C819775  15.049   0.075   3.205 -1.2393 -0.3149  0.4393
 1798UDC     C919776  14.979  -0.065   3.195 -0.6761  0.4981  0.3836
 1798UDC    C1019777  14.931  -0.115   3.327  0.0886  0.2436 -0.9643
 1798UDC    C1119778  14.867  -0.251   3.299  0.8612  0.0697  1.0558
 1799UDC     C119779   3.079   2.262   3.645 -0.1832  0.6224 -0.6563
 1799UDC     C219780   3.021   2.316   3.781 -1.1052  0.4947  0.5651
 1799UDC     C319781   2.994   2.457   3.816  0.3329 -0.2307  0.2875
 1799UDC     C419782   2.960   2.495   3.963  0.5553 -0.8182 -0.4966
 1799UDC     C519783   2.982   2.647   3.993  0.1803  0.2720 -0.9355
 1799UDC     C619784   3.121   2.701   3.988  0.4186 -0.0199  0.0422
 1799UDC     C719785   3.212   2.675   4.107 -0.2761 -0.0932 -0.8171
 1799UDC     C819786   3.152   2.735   4.239 -0.9592  0.3052  1.1781
 1799UDC     C919787   3.238   2.790   4.347 -0.3656  0.0250 -0.4805
 1799UDC    C1019788   3.191   2.838   4.481  0.2333 -0.7933  0.3038
 1799UDC    C1119789   3.075   2.941   4.477 -0.8905  0.1502 -0.6554
 1800UDC     C119790  12.001  18.220   4.017  0.3382 -0.7086  0.7398
 1800UDC     C219791  12.124  18.312   3.981  0.0773  0.4077  1.1996
 1800UDC     C319792  12.104  18.382   3.859 -0.5056 -1.8160  1.1779
 1800UDC     C419793  11.982  18.468   3.848  0.0376 -0.5935  1.0815
 1800UDC     C519794  11.973  18.548   3.717 -0.4738 -0.5373  0.2769
 1800UDC     C619795  11.839  18.632   3.695 -1.0675 -0.4810  0.1027
 1800UDC     C719796  11.830  18.699   3.559 -1.1096 -0.8299 -0.0422
 1800UDC     C819797  11.841  18.599   3.447  0.2121  0.5685 -0.4229
 1800UDC     C919798  11.797  18.652   3.310 -0.1542 -0.1451 -0.6990
 1800UDC    C1019799  11.863  18.785   3.265 -0.2740 -0.8407 -0.6194
 1800UDC    C1119800  11.978  18.779   3.148  0.4544  0.4220 -0.8137
 1801UDC     C119801  17.428  18.629  10.842 -0.6068 -0.3648 -0.5128
 1801UDC     C219802  17.470  18.675  10.705 -0.5981 -0.9308 -0.4406
 1801UDC     C319803  17.397  18.592  10.599  0.3090 -0.3364  0.3511
 1801UDC     C419804  17.451  18.626  10.464  0.2942 -0.9488 -1.5694
 1801UDC     C519805  17.358  18.572  10.354 -0.3321 -0.4722 -0.7006
 1801UDC     C619806  17.423  18.506  10.235 -1.3996 -0.7604 -0.5442
 1801UDC     C719807  17.331  18.390  10.188 -1.4197  0.2832 -1.1080
 1801UDC     C819808  17.407  18.263  10.153  0.5024  0.9388 -0.2547
 1801UDC     C919809  17.402  18.156  10.269  0.3172  0.6223  0.4912
 1801UDC    C1019810  17.439  18.016  10.218 -0.0595  0.4461  0.1674
 1801UDC    C1119811  17.397  17.900  10.309  0.2799  1.3041  0.3794
 1802UDC     C119812   8.063  10.766   1.093 -0.1753  1.1092  0.7524
 1802UDC     C219813   8.134  10.633   1.135  0.9561  0.5164  1.1332
 1802UDC     C319814   8.049  10.503   1.089  0.9192 -0.7210  0.4723
 1802UDC     C419815   8.001  10.526   0.943 -0.6626 -0.8372 -0.2322
 1802UDC     C519816   7.969  10.401   0.861 -0.7346  0.1231  0.1827
 1802UDC     C619817   7.818  10.411   0.823 -0.6270 -0.1380 -0.3930
 1802UDC     C719818   7.788  10.491   0.697  0.7548 -0.1760 -0.2205
 1802UDC     C819819   7.880  10.462   0.582 -0.4590  1.3437 -0.1164
 1802UDC     C919820   7.810  10.488   0.446 -0.2101 -0.4391  0.3576
 1802UDC    C1019821   7.768  10.628   0.411  0.4237  0.5535  0.3164
 1802UDC    C1119822   7.625  10.675   0.413 -0.1428  0.2668  0.0805
 1803UDC     C119823   8.323  11.759   9.401 -0.3516 -0.6439  0.6897
 1803UDC     C219824   8.242  11.786   9.268  0.4278  0.5846  0.7600
 1803UDC     C319825   8.092  11.740   9.283 -0.5604 -0.1213  0.1884
 1803UDC     C419826   8.009  11.790   9.405 -0.6436 -0.1833  1.0660
 1803UDC     C519827   7.856  11.804   9.398  0.2146 -0.8443  0.0254
 1803UDC     C619828   7.822  11.880   9.524  0.4685  0.2131 -0.9130
 1803UDC     C719829   7.937  11.880   9.636  0.1783  0.9139  0.5037
 1803UDC     C819830   7.896  11.976   9.751 -1.1427  0.8950  0.2822
 1803UDC     C919831   7.921  11.946   9.899  0.2743 -0.3827 -0.5099
 1803UDC    C1019832   7.870  11.798   9.925  0.5258  0.8447 -0.1251
 1803UDC    C1119833   7.722  11.796   9.965 -0.0492  0.3156 -0.1631
 1804UDC     C119834  16.855  19.418   2.512  0.0517 -0.4385 -1.0781
 1804UDC     C219835  16.949  19.539   2.478 -1.1180 -0.1396 -0.4225
 1804UDC     C319836  17.078  19.556   2.568 -0.3250 -0.3671 -0.2052
 1804UDC     C419837  17.065  19.629   2.700  0.4597 -0.3799 -1.2435
 1804UDC     C519838  17.175  19.707   2.764  0.7410 -0.3605 -0.0840
 1804UDC     C619839  17.284  19.742   2.664 -0.4252 -0.1746 -1.0664
 1804UDC     C719840  17.388  19.853   2.701 -0.9205 -0.8968  0.7526
 1804UDC     C819841  17.533  19.819   2.673  0.2333  0.4003 -0.1895
 1804UDC     C919842  17.635  19.921   2.729  0.3898 -0.5535 -0.1298
 1804UDC    C1019843  17.643  19.938   2.880  0.0023  0.6197 -0.3573
 1804UDC    C1119844  17.547  20.026   2.952 -0.9798 -0.4806  0.1435
 1805UDC     C119845   1.297   8.520   3.603 -0.3379  1.9932  0.4915
 1805UDC     C219846   1.231   8.428   3.499 -1.0030  1.2199 -0.4492
 1805UDC     C319847   1.105   8.349   3.548  0.6249  0.5408 -0.5139
 1805UDC     C419848   1.061   8.245   3.436 -0.1266 -0.3697  0.4600
 1805UDC     C519849   1.165   8.149   3.377  0.7245 -0.2452  0.2728
 1805UDC     C619850   1.194   8.012   3.440 -0.1849 -0.1643 -0.2652
 1805UDC     C719851   1.205   7.893   3.339  0.5103 -0.7598 -0.4536
 1805UDC     C819852   1.345   7.854   3.281  0.3267  0.3950  0.3200
 1805UDC     C919853   1.417   7.976   3.222  0.3819  0.7899  1.4566
 1805UDC    C1019854   1.569   7.952   3.260  0.8519 -0.7951  0.1800
 1805UDC    C1119855   1.584   8.039   3.391  0.2910 -0.0438 -0.2497
 1806UDC     C119856  18.828  16.718  17.439  0.2317  0.6279  0.1034
 1806UDC     C219857  18.731  16.769  17.330  0.5962  1.0207  0.0367
 1806UDC     C319858  18.664  16.671  17.232  0.5083  0.5718 -0.0507
 1806UDC     C419859  18.537  16.608  17.294  0.7348  1.0375  0.6366
 1806UDC     C519860  18.412  16.687  17.291  1.0864 -0.1039  0.5440
 1806UDC     C619861  18.292  16.618  17.361  0.2809  0.4394 -0.2135
 1806UDC     C719862  18.189  16.584  17.244 -0.3909 -0.6413 -0.1620
 1806UDC     C819863  18.043  16.608  17.284 -1.2603  0.6291 -0.5539
 1806UDC     C919864  17.949  16.528  17.199  0.5532  1.1652 -0.2880
 1806UDC    C1019865  17.805  16.506  17.236 -0.1871  0.8868  0.2032
 1806UDC    C1119866  17.735  16.435  17.121  0.2079 -0.2523 -0.5216
 1807UDC     C119867   6.262   6.650  13.603 -0.5956 -0.1901 -0.8345
 1807UDC     C219868   6.254   6.709  13.744 -0.7732  0.8613  0.6078
 1807UDC     C319869   6.395   6.732  13.800 -0.8903  0.4020  1.0945
 1807UDC     C419870   6.410   6.783  13.941 -0.5797 -0.4227 -0.8890
 1807UDC     C519871   6.555   6.760  13.985 -0.8431 -0.1394  1.4410
 1807UDC     C619872   6.636   6.896  13.996 -0.9801  0.7074  0.2202
 1807UDC     C719873   6.578   6.982  14.109 -1.1602 -0.4661 -0.7826
 1807UDC     C819874   6.610   7.133  14.115  0.3474  0.6146  0.7599
 1807UDC     C919875   6.498   7.210  14.183  0.6734  0.1594  0.0778
 1807UDC    C1019876   6.378   7.213  14.087  0.8349 -0.3690 -0.4508
 1807UDC    C1119877   6.251   7.277  14.149  0.2433 -0.1193  0.2354
 1808UDC     C119878   4.655  18.264   9.966 -0.8328 -0.5276  0.4589
 1808UDC     C219879   4.642  18.201  10.102  0.3769 -1.2505 -0.3723
 1808UDC     C319880   4.768  18.223  10.182  0.0847 -0.2147  0.6423
 1808UDC     C419881   4.755  18.116  10.291 -1.2143  0.4665 -0.2348
 1808UDC     C519882   4.677  18.168  10.418 -0.5583  0.7319  0.0049
 1808UDC     C619883   4.672  18.078  10.547  0.3070  0.9682 -1.1674
 1808UDC     C719884   4.611  18.147  10.666  0.6891  0.0907  0.5098
 1808UDC     C819885   4.549  18.058  10.769  0.8514 -0.8489  0.2109
 1808UDC     C919886   4.502  18.125  10.902 -0.8755 -0.5411  0.3225
 1808UDC    C1019887   4.430  18.045  11.013  0.2087  0.6876 -0.3734
 1808UDC    C1119888   4.409  18.113  11.150 -0.3489 -0.9107  0.5925
 1809UDC     C119889  16.549   9.911   4.798 -0.3354  0.7001  0.7253
 1809UDC     C219890  16.479   9.787   4.860 -0.6413 -0.3732  0.3908
 1809UDC     C319891  16.423   9.686   4.757  0.0213  0.4381 -1.7132
 1809UDC     C419892  16.310   9.604   4.820  0.0025 -1.1565 -0.2137
 1809UDC     C519893  16.229   9.514   4.721 -0.0026  1.6340  1.1127
 1809UDC     C619894  16.128   9.403   4.768 -0.7997 -0.5443 -0.2070
 1809UDC     C719895  16.184   9.314   4.878 -0.1236  0.3926  0.3863
 1809UDC     C819896  16.084   9.204   4.935 -0.1184 -0.9115  0.4462
 1809UDC     C919897  16.127   9.120   5.060  0.7071 -0.2835  0.7804
 1809UDC    C1019898  16.010   9.062   5.146 -0.5341 -0.0454  0.8258
 1809UDC    C1119899  15.911   9.155   5.227  0.1503 -0.1488  0.6716
 1810UDC     C119900  16.132   0.289   9.697 -0.0398  0.1689  0.3287
 1810UDC     C219901  16.001   0.208   9.676 -0.4364  0.6105 -0.2623
 1810UDC     C319902  15.897   0.266   9.573 -0.3304 -0.3585 -0.1098
 1810UDC     C419903  15.753   0.229   9.614  0.4779 -0.3796 -1.1353
 1810UDC     C519904  15.637   0.280   9.535 -0.2726 -0.2149 -0.4797
 1810UDC     C619905  15.669   0.253   9.378 -0.4499  0.6037 -0.3071
 1810UDC     C719906  15.541   0.294   9.311 -0.3032  0.0229 -1.1405
 1810UDC     C819907  15.544   0.268   9.155  0.3228  0.9886 -0.1476
 1810UDC     C919908  15.589   0.387   9.065  0.4429 -0.2357 -0.0878
 1810UDC    C1019909  15.639   0.336   8.933  0.8888  0.3140  0.9280
 1810UDC    C1119910  15.746   0.226   8.934  0.7341 -0.1935 -0.9403
 1811UDC     C119911  17.351   7.038  10.311 -0.1697  0.7133  0.2409
 1811UDC     C219912  17.213   7.062  10.372  0.1915  0.5085 -0.7014
 1811UDC     C319913  17.160   6.980  10.489  1.1449 -0.9107  0.3195
 1811UDC     C419914  17.003   6.981  10.507 -0.4115  0.4300 -0.8684
 1811UDC     C519915  16.931   7.072  10.601 -0.2077  0.1973  0.2459
 1811UDC     C619916  16.966   7.052  10.752  0.2617 -0.3257  0.0719
 1811UDC     C719917  16.891   7.169  10.825 -0.2287 -0.3823  1.1012
 1811UDC     C819918  16.888   7.180  10.982  0.5427 -0.8975  0.1368
 1811UDC     C919919  17.022   7.211  11.041 -0.1075  0.0310  0.0959
 1811UDC    C1019920  17.097   7.336  10.984  0.5614 -0.3320  1.1072
 1811UDC    C1119921  17.035   7.459  11.056 -0.1265  0.1605  0.5225
 1812UDC     C119922   0.712   0.204  12.982  0.4250  0.8126  0.1825
 1812UDC     C219923   0.826   0.260  12.893 -1.2556  0.3920  0.1858
 1812UDC     C319924   0.863   0.408  12.937  0.9657 -0.0395  0.0718
 1812UDC     C419925   0.908   0.473  12.806 -0.2111 -0.6990 -0.2694
 1812UDC     C519926   0.815   0.478  12.685  0.2966 -0.6719 -0.1376
 1812UDC     C619927   0.750   0.617  12.664  0.5709  0.0900 -0.1259
 1812UDC     C719928   0.855   0.730  12.634  1.0774  0.5679  0.3215
 1812UDC     C819929   0.801   0.794  12.503 -0.5956  1.0556  0.2632
 1812UDC     C919930   0.865   0.927  12.473  0.4701  0.4494  0.7792
 1812UDC    C1019931   0.920   0.929  12.325  0.0023  0.8963  0.2355
 1812UDC    C1119932   1.022   1.047  12.290 -0.0624  0.7097 -0.5058
 1813UDC     C119933  10.734   0.416   4.696 -0.5155 -0.4058  1.5172
 1813UDC     C219934  10.828   0.379   4.811  0.1419 -0.0095 -1.3775
 1813UDC     C319935  10.978   0.352   4.769  0.4910 -0.0774 -0.3570
 1813UDC     C419936  11.065   0.359   4.898  0.1050  0.0040 -0.2670
 1813UDC     C519937  11.216   0.371   4.897  1.2692  0.6372 -0.6032
 1813UDC     C619938  11.309   0.271   4.819  1.3829 -0.2938 -0.6535
 1813UDC     C719939  11.454   0.303   4.852  0.0082 -0.0338 -0.2562
 1813UDC     C819940  11.551   0.236   4.755  0.4983 -0.2059  0.1053
 1813UDC     C919941  11.610   0.346   4.662 -0.0270 -0.5883 -0.3387
 1813UDC    C1019942  11.662   0.299   4.527 -1.1291 -0.0361  0.0946
 1813UDC    C1119943  11.736   0.404   4.432 -0.7767  0.7389  1.6235
 1814UDC     C119944   0.283   3.883  18.476  0.4081 -0.1207  1.0289
 1814UDC     C219945   0.354   3.907  18.614 -1.0991 -0.2592  0.3417
 1814UDC     C319946   0.267   3.892  18.742  1.0061  0.4428 -0.2542
 1814UDC     C419947   0.339   3.938  18.866 -0.6285  0.6833 -0.2669
 1814UDC     C519948   0.237   3.937  18.984 -0.3473  0.0974 -0.7641
 1814UDC     C619949   0.305   3.980  19.117  0.1987  0.0076 -0.2058
 1814UDC     C719950   0.284   3.909  19.245  0.0232 -0.3005 -0.3830
 1814UDC     C819951   0.421   3.856  19.298 -0.5085 -0.2423  0.1187
 1814UDC     C919952   0.384   3.782  19.426 -0.1096  0.1047  1.0443
 1814UDC    C1019953   0.248   3.825  19.466  0.0096  0.4956  0.7931
 1814UDC    C1119954   0.224   3.784  19.606  0.7290 -0.7725 -0.0735
 1815UDC     C119955   9.599   1.971  16.240  0.3870 -0.2795  0.1034
 1815UDC     C219956   9.676   1.933  16.370 -0.1062 -0.3174 -0.6082
 1815UDC     C319957   9.788   1.824  16.354 -0.3063 -0.2014 -0.4123
 1815UDC     C419958   9.913   1.894  16.297  0.7771  0.2525 -0.1664
 1815UDC     C519959  10.023   1.812  16.219  0.5416  0.5804  1.1080
 1815UDC     C619960  10.129   1.726  16.286  0.9010  0.2160 -0.7410
 1815UDC     C719961  10.225   1.642  16.208 -1.2909  0.4272  0.2038
 1815UDC     C819962  10.349   1.723  16.156 -0.7025 -0.0450  0.7496
 1815UDC     C919963  10.477   1.742  16.248  0.7591  0.9737 -0.9829
 1815UDC    C1019964  10.545   1.872  16.216  0.2433  0.2216  0.6121
 1815UDC    C1119965  10.641   1.849  16.097 -0.8334 -0.7492 -0.0595
 1816UDC     C119966  10.873  12.927  10.577  0.3095 -1.0685  0.3780
 1816UDC     C219967  10.900  13.036  10.458 -0.2921  0.6750 -0.3296
 1816UDC     C319968  11.042  13.094  10.442 -0.1115  0.5114  0.3852
 1816UDC     C419969  11.084  13.181  10.321 -0.5960 -0.6386 -0.1282
 1816UDC     C519970  11.211  13.134  10.246 -1.1493 -0.0141 -0.1370
 1816UDC     C619971  11.219  13.180  10.103  0.2315  0.9662 -0.5951
 1816UDC     C719972  11.345  13.256  10.056  0.2091 -0.0575  0.2123
 1816UDC     C819973  11.318  13.331   9.921  0.1365  0.1210  0.1765
 1816UDC     C919974  11.247  13.272   9.792  0.2486 -0.1508  0.0130
 1816UDC    C1019975  11.183  13.387   9.711  0.0372 -0.8410  1.8137
 1816UDC    C1119976  11.274  13.507   9.668  0.0707  0.7597 -1.2319
 1817UDC     C119977  14.731  10.012  18.867 -0.2334 -0.1070 -0.2071
 1817UDC     C219978  14.683  10.153  18.925  0.5051 -0.0655 -0.5413
 1817UDC     C319979  14.588  10.231  18.827 -0.8722  0.6726 -0.0232
 1817UDC     C419980  14.580  10.380  18.872 -0.5707  0.8428  0.8507
 1817UDC     C519981  14.471  10.475  18.804  0.3027 -0.2319 -0.6362
 1817UDC     C619982  14.489  10.627  18.838 -0.0002  0.2307 -0.0703
 1817UDC     C719983  14.623  10.672  18.903 -0.9141  0.3848 -0.0562
 1817UDC     C819984  14.645  10.815  18.934 -0.1374  0.1213 -0.3704
 1817UDC     C919985  14.774  10.889  18.962 -0.2356  0.6182 -0.4258
 1817UDC    C1019986  14.830  10.851  19.093 -0.1499  0.1349 -0.3873
 1817UDC    C1119987  14.963  10.917  19.103 -0.2331  0.2578  0.1844
 1818UDC     C119988   8.078  15.948  14.877 -0.3922 -0.7475  0.2946
 1818UDC     C219989   8.228  15.925  14.875 -0.2628 -0.7097  0.6668
 1818UDC     C319990   8.305  15.891  14.746 -0.4542  1.0639  0.1590
 1818UDC     C419991   8.458  15.907  14.766 -0.5358  0.2864 -0.0346
 1818UDC     C519992   8.544  15.896  14.648 -0.3163 -1.1772  0.2881
 1818UDC     C619993   8.676  15.977  14.659 -0.0672 -0.3665  0.4813
 1818UDC     C719994   8.646  16.119  14.704 -0.4178  0.7317  0.8059
 1818UDC     C819995   8.758  16.216  14.702 -0.1920 -0.0400 -1.0502
 1818UDC     C919996   8.704  16.361  14.735  0.2325  1.2713  0.0697
 1818UDC    C1019997   8.575  16.385  14.660  0.6007 -1.2087  0.2120
 1818UDC    C1119998   8.523  16.513  14.734 -0.4601 -0.2826  0.2860
 1819UDC     C119999   6.769  17.821   3.306  1.1454  0.9732  0.3706
 1819UDC     C220000   6.923  17.801   3.318  0.5478  0.7477 -0.7475
 1819UDC     C320001   6.987  17.688   3.236 -1.0004  0.5916 -0.4834
 1819UDC     C420002   6.933  17.543   3.233  1.0110  0.6029 -0.1508
 1819UDC     C520003   7.030  17.434   3.179 -0.6363  0.6630 -0.2542
 1819UDC     C620004   7.167  17.403   3.250 -0.9617  0.2267 -1.2572
 1819UDC     C720005   7.239  17.259   3.243 -0.2154 -1.3693  0.6652
 1819UDC     C820006   7.322  17.238   3.368  0.0303 -0.6673 -0.1116
 1819UDC     C920007   7.238  17.235   3.497 -0.4212 -0.8881  0.1208
 1819UDC    C1020008   7.129  17.126   3.517  0.0856 -0.7211 -1.2029
 1819UDC    C1120009   7.164  16.985   3.585  0.4681  0.1658  0.8969
 1820UDC     C120010  15.619   1.392  12.373 -0.4153 -0.0912  0.2799
 1820UDC     C220011  15.588   1.473  12.253 -0.3704  0.4555  0.7204
 1820UDC     C320012  15.605   1.618  12.273 -0.5111 -0.1088 -0.7283
 1820UDC     C420013  15.565   1.703  12.152  0.2928 -0.3422 -0.5546
 1820UDC     C520014  15.463   1.627  12.065 -0.5633 -0.4386 -0.3256
 1820UDC     C620015  15.380   1.702  11.972 -0.2278 -0.6928  0.0818
 1820UDC     C720016  15.287   1.618  11.885 -0.6735 -0.5222 -0.1302
 1820UDC     C820017  15.191   1.722  11.824 -0.4358  0.9954  0.2024
 1820UDC     C920018  15.130   1.717  11.681 -0.0232  0.1424 -0.4632
 1820UDC    C1020019  15.048   1.838  11.635 -0.1092 -0.1618  0.1789
 1820UDC    C1120020  15.148   1.962  11.614 -0.3967  1.1760  1.1307
 1821UDC     C120021  19.066   3.977  12.917  0.1261  0.1533 -1.2726
 1821UDC     C220022  19.107   3.932  13.061 -0.4681  1.5180 -0.0115
 1821UDC     C320023  19.017   3.817  13.104  1.5671 -0.9358  0.0018
 1821UDC     C420024  19.061   3.773  13.246  0.0503 -0.7063 -0.4594
 1821UDC     C520025  19.028   3.875  13.357 -0.8287  0.1274  1.6005
 1821UDC     C620026  18.994   3.810  13.487 -0.2407 -0.0960  0.0838
 1821UDC     C720027  18.890   3.699  13.472 -0.6115  0.2898  0.0959
 1821UDC     C820028  18.779   3.710  13.584 -0.0944  0.1069 -0.2718
 1821UDC     C920029  18.661   3.803  13.550  0.5616 -0.6498 -0.5788
 1821UDC    C1020030  18.559   3.817  13.669  0.7160  0.5237  0.0412
 1821UDC    C1120031  18.484   3.690  13.722  0.9772 -0.0788 -0.0967
 1822UDC     C120032  12.167   7.929  19.159 -0.3752  0.4300 -0.5030
 1822UDC     C220033  12.146   7.883  19.302 -0.3977 -1.4385  0.0682
 1822UDC     C320034  12.262   7.916  19.397 -1.7543  0.6788  0.0991
 1822UDC     C420035  12.230   7.869  19.535 -0.5561 -0.0131  0.3368
 1822UDC     C520036  12.348   7.886  19.637 -0.8903 -1.5667 -0.9367
 1822UDC     C620037  12.479   7.808  19.616  0.2403 -0.3226  0.4643
 1822UDC     C720038  12.450   7.656  19.589 -0.8638  0.9562 -0.0265
 1822UDC     C820039  12.588   7.592  19.539  0.6397  0.8241 -0.5501
 1822UDC     C920040  12.603   7.437  19.567  0.6844 -0.5693  0.3295
 1822UDC    C1020041  12.575   7.401  19.711 -0.6793 -0.4321 -0.2557
 1822UDC    C1120042  12.674   7.472  19.810  0.4984 -0.1406 -0.7368
 1823UDC     C120043  12.747   5.549  15.768  0.0140  1.1231  0.0415
 1823UDC     C220044  12.853   5.436  15.762 -0.4581  1.4638  0.5975
 1823UDC     C320045  12.843   5.328  15.650 -0.4202  0.6192 -0.1612
 1823UDC     C420046  12.863   5.196  15.719 -0.3626  0.8038 -0.6764
 1823UDC     C520047  12.730   5.132  15.773 -0.1061 -1.3111  0.0194
 1823UDC     C620048  12.752   5.113  15.924  0.2219  1.2762  0.2718
 1823UDC     C720049  12.621   5.101  16.002 -0.6507  0.4389  0.2362
 1823UDC     C820050  12.645   5.152  16.143  0.1774 -0.4054 -0.7823
 1823UDC     C920051  12.516   5.176  16.217  0.8443 -0.6760 -0.2200
 1823UDC    C1020052  12.410   5.283  16.171 -0.3440 -0.5806 -0.2295
 1823UDC    C1120053  12.446   5.426  16.119  0.1980 -0.8104 -0.0422
 1824UDC     C120054  19.208   1.712   1.308  0.8245 -0.0112  0.1087
 1824UDC     C220055  19.256   1.800   1.188  0.3557 -0.0527  0.2641
 1824UDC     C320056  19.138   1.890   1.157  1.2882 -0.5754  0.5763
 1824UDC     C420057  19.160   1.992   1.051 -0.0715 -0.7285 -0.5388
 1824UDC     C520058  19.057   2.111   1.086  0.6728  0.3659  0.3637
 1824UDC     C620059  19.074   2.174   1.227  0.1439 -0.0345 -0.2310
 1824UDC     C720060  19.212   2.235   1.270 -0.7338  0.2298 -0.1896
 1824UDC     C820061  19.281   2.362   1.212  0.5084  0.0818  0.5150
 1824UDC     C920062  19.435   2.336   1.180  0.3399 -0.4129 -0.5784
 1824UDC    C1020063  19.465   2.291   1.042  0.4123 -1.0133  0.3244
 1824UDC    C1120064  19.597   2.331   0.979 -0.3967 -0.4463 -0.5688
 1825UDC     C120065   5.839   2.866  12.413  0.5430 -0.9802 -0.3382
 1825UDC     C220066   5.720   2.928  12.484 -0.9068  0.3084  0.5099
 1825UDC     C320067   5.663   2.821  12.578  0.7246  0.2181 -0.7585
 1825UDC     C420068   5.768   2.759  12.668 -0.0634  0.9019  1.3034
 1825UDC     C520069   5.719   2.679  12.796  0.2451 -0.9846 -0.6988
 1825UDC     C620070   5.621   2.560  12.771 -0.1699 -0.3094  0.1134
 1825UDC     C720071   5.583   2.474  12.898 -0.1692  0.7087 -0.7210
 1825UDC     C820072   5.713   2.464  12.981 -0.3205  0.0730  0.4176
 1825UDC     C920073   5.764   2.325  13.019 -0.4656 -0.0087 -0.0421
 1825UDC    C1020074   5.908   2.285  13.026 -0.4478 -0.2386 -0.2232
 1825UDC    C1120075   5.948   2.232  13.159  0.5771  0.1492 -0.6860
 1826UDC     C120076  18.529   7.351  17.889  0.0407  0.6235 -0.7804
 1826UDC     C220077  18.393   7.320  17.826 -0.1867  0.7438  0.8138
 1826UDC     C320078  18.389   7.170  17.787 -0.4555  0.6505  0.0135
 1826UDC     C420079  18.263   7.140  17.706 -0.0947 -0.4518  0.2812
 1826UDC     C520080  18.270   6.987  17.722 -0.1618  0.2040  0.7724
 1826UDC     C620081  18.228   6.908  17.850 -1.1218  0.8981  0.4201
 1826UDC     C720082  18.118   6.981  17.928  0.1106  0.7465 -0.0175
 1826UDC     C820083  18.061   6.921  18.058 -1.0113 -0.4245  0.4136
 1826UDC     C920084  17.916   6.942  18.078 -1.0802  0.0143  0.0845
 1826UDC    C1020085  17.892   6.940  18.223 -0.1408 -0.2003 -0.3642
 1826UDC    C1120086  17.748   6.968  18.262 -0.1080 -1.4446 -0.7578
 1827UDC     C120087  12.578   7.775  16.958 -0.4524 -0.5927  0.3840
 1827UDC     C220088  12.721   7.741  16.936 -0.2410 -0.5936 -0.5028
 1827UDC     C320089  12.814   7.855  16.954  0.5679 -0.2595 -0.1929
 1827UDC     C420090  12.906   7.884  16.834  0.3802  0.2181  0.1003
 1827UDC     C520091  12.829   7.955  16.725  0.1082 -1.3599  0.8515
 1827UDC     C620092  12.749   8.067  16.780  0.8189  0.5872  0.0599
 1827UDC     C720093  12.656   8.134  16.680 -0.9855  0.5523  0.0518
 1827UDC     C820094  12.720   8.236  16.586  0.1060 -0.8948  0.2156
 1827UDC     C920095  12.614   8.286  16.484 -0.2241  0.2617 -0.4651
 1827UDC    C1020096  12.492   8.197  16.514 -1.1265  0.2879 -0.5901
 1827UDC    C1120097  12.377   8.233  16.417  0.0645  0.2769 -0.5489
 1828UDC     C120098  18.225   5.839  11.224  0.5076 -0.0437 -0.0100
 1828UDC     C220099  18.093   5.792  11.171 -0.5948  0.0520  0.9407
 1828UDC     C320100  17.990   5.771  11.275 -0.2420 -0.4990 -0.6356
 1828UDC     C420101  17.853   5.720  11.227 -0.0705  0.3114 -0.5399
 1828UDC     C520102  17.743   5.805  11.297 -0.4107  0.7150 -0.0834
 1828UDC     C620103  17.610   5.815  11.223 -0.1560  0.0771  0.3072
 1828UDC     C720104  17.500   5.834  11.330  0.4831 -0.0115 -0.4828
 1828UDC     C820105  17.489   5.966  11.403  0.2678  0.7368  0.8344
 1828UDC     C920106  17.556   5.986  11.538 -0.6662 -0.3683 -0.1843
 1828UDC    C1020107  17.497   5.911  11.652 -0.9989  0.2578 -0.1150
 1828UDC    C1120108  17.569   5.926  11.788  1.3436 -1.1166 -0.0126
 1829UDC     C120109   6.192  10.573   1.413 -0.3644  0.1937  0.1063
 1829UDC     C220110   6.091  10.628   1.315  0.0056  0.6728 -0.7596
 1829UDC     C320111   6.158  10.643   1.182 -0.1639  0.5526  1.5898
 1829UDC     C420112   6.056  10.649   1.065 -0.0290  0.3928 -0.3877
 1829UDC     C520113   6.110  10.665   0.927 -0.4653 -0.3288 -0.0559
 1829UDC     C620114   6.007  10.644   0.816 -0.1875 -0.3191  1.2805
 1829UDC     C720115   6.048  10.577   0.692 -1.3516  0.8281  2.0409
 1829UDC     C820116   5.942  10.575   0.582 -0.0808 -0.2329 -0.3715
 1829UDC     C920117   5.981  10.565   0.431  0.4492  0.2028  0.3606
 1829UDC    C1020118   5.880  10.623   0.333  0.0132  0.3892 -0.3439
 1829UDC    C1120119   5.836  10.768   0.343 -0.1637 -0.0775 -0.3282
 1830UDC     C120120  13.449   4.503   2.364 -0.2724  0.7066  0.6488
 1830UDC     C220121  13.576   4.465   2.435 -1.8057  0.1532 -0.5443
 1830UDC     C320122  13.704   4.411   2.359  1.0416  0.3148  0.5171
 1830UDC     C420123  13.809   4.336   2.437 -1.0665  0.8586 -0.0645
 1830UDC     C520124  13.910   4.259   2.351 -0.2832 -0.3481 -0.0828
 1830UDC     C620125  13.839   4.150   2.266 -0.7265 -0.2723  0.4797
 1830UDC     C720126  13.927   4.111   2.148  0.0823 -0.1860  0.1434
 1830UDC     C820127  14.068   4.066   2.174  0.4539 -0.3989 -0.7428
 1830UDC     C920128  14.167   4.060   2.063  0.2599 -0.1516  0.6884
 1830UDC    C1020129  14.283   3.974   2.092 -0.7798  0.6415  0.4926
 1830UDC    C1120130  14.381   4.048   2.182  0.1382 -0.0712  1.0684
 1831UDC     C120131   1.952   5.762   7.082  0.7302  0.0290  0.3974
 1831UDC     C220132   1.976   5.903   7.143  0.5231  0.0695  1.1739
 1831UDC     C320133   1.877   6.000   7.065 -0.5615  0.0641  0.3707
 1831UDC     C420134   1.730   5.950   7.044 -0.7783 -0.7172 -0.8998
 1831UDC     C520135   1.632   6.010   7.143 -0.0274  0.4179 -0.6051
 1831UDC     C620136   1.623   5.915   7.274 -0.6919 -0.6287  1.1051
 1831UDC     C720137   1.484   5.862   7.299  0.1054  0.6913 -0.5995
 1831UDC     C820138   1.383   5.959   7.367 -0.9964  0.5172 -1.3031
 1831UDC     C920139   1.239   5.913   7.374  0.1700  0.4639  0.1834
 1831UDC    C1020140   1.161   5.899   7.240  0.2609  0.8817 -0.1570
 1831UDC    C1120141   1.170   6.023   7.149 -0.4052 -1.3515 -0.2992
 1832UDC     C120142  18.901  14.382  18.180  0.1024 -0.1995  0.2887
 1832UDC     C220143  19.006  14.353  18.074 -0.9266  0.1882  0.1880
 1832UDC     C320144  19.152  14.381  18.130 -0.2428 -0.0316  0.5360
 1832UDC     C420145  19.276  14.391  18.035  0.5544  0.0202  0.2800
 1832UDC     C520146  19.310  14.541  18.025  0.2556  0.5664 -0.2318
 1832UDC     C620147  19.326  14.577  17.882 -0.6240 -1.5664 -0.3737
 1832UDC     C720148  19.336  14.728  17.841  0.0868  0.2211  0.1140
 1832UDC     C820149  19.317  14.745  17.692 -0.6085 -0.6130  0.4468
 1832UDC     C920150  19.177  14.675  17.672  0.0834 -0.8310  0.0120
 1832UDC    C1020151  19.110  14.709  17.534 -0.3874 -1.5071 -0.2210
 1832UDC    C1120152  19.201  14.762  17.428  0.8885 -0.7354  0.7225
 1833UDC     C120153   0.947   3.823   2.169 -0.1616 -0.3539  0.1648
 1833UDC     C220154   0.889   3.689   2.218 -0.7974 -0.1674 -0.0357
 1833UDC     C320155   0.783   3.626   2.127  0.1708  0.0255  0.0795
 1833UDC     C420156   0.713   3.507   2.195 -0.0389  0.1463 -0.1328
 1833UDC     C520157   0.565   3.535   2.223 -0.1070  0.9315 -0.4336
 1833UDC     C620158   0.533   3.654   2.316 -0.3163 -0.2023 -0.3361
 1833UDC     C720159   0.386   3.669   2.364 -0.8326  1.0231 -0.4663
 1833UDC     C820160   0.357   3.553   2.463 -0.9240  1.2507 -0.2573
 1833UDC     C920161   0.221   3.539   2.524  0.2505  0.1326 -0.5989
 1833UDC    C1020162   0.171   3.403   2.582 -0.5823  0.0061  0.3365
 1833UDC    C1120163   0.232   3.359   2.723 -0.8566 -0.5102  0.5374
 1834UDC     C120164  10.304   6.602  18.080 -0.5673  0.2061 -0.2737
 1834UDC     C220165  10.366   6.687  17.962  0.1997  0.2479 -0.9650
 1834UDC     C320166  10.462   6.791  18.014  1.1767 -0.5809  0.3578
 1834UDC     C420167  10.537   6.875  17.904 -0.3171 -0.0242  0.9002
 1834UDC     C520168  10.643   6.983  17.933 -0.0470  1.0979 -0.5453
 1834UDC     C620169  10.732   7.038  17.821  0.3857  0.4381 -0.2537
 1834UDC     C720170  10.812   7.148  17.898 -0.1355  0.4090  0.3969
 1834UDC     C820171  10.923   7.205  17.804 -0.5796 -0.2140  1.0241
 1834UDC     C920172  11.017   7.079  17.781  0.6258 -0.0502 -0.4452
 1834UDC    C1020173  11.118   7.105  17.672  0.1748  1.1795  0.4199
 1834UDC    C1120174  11.066   7.161  17.538 -0.0626  0.8462 -0.5826
 1835UDC     C120175  14.596  18.057   8.051 -0.1763 -0.5314  0.1155
 1835UDC     C220176  14.732  18.107   8.084 -0.7486  0.2247 -0.9349
 1835UDC     C320177  14.769  18.242   8.021 -0.5219 -0.1397  1.0134
 1835UDC     C420178  14.917  18.268   7.980  0.0848  0.2348 -1.6021
 1835UDC     C520179  14.937  18.409   7.927 -0.5850 -1.5462 -0.0746
 1835UDC     C620180  15.076  18.448   7.876  0.9695  0.6064 -0.2988
 1835UDC     C720181  15.178  18.438   7.986 -0.8849 -1.0893  0.2921
 1835UDC     C820182  15.253  18.303   7.971  0.0266 -0.3958 -0.1127
 1835UDC     C920183  15.372  18.308   8.067 -0.6602  0.6537  0.8929
 1835UDC    C1020184  15.490  18.223   8.013  1.3939 -0.7625 -0.5268
 1835UDC    C1120185  15.467  18.072   8.005 -0.5305  0.5115  0.0898
 1836UDC     C120186  10.377  15.649  17.204 -0.2892 -0.3242 -0.8562
 1836UDC     C220187  10.394  15.734  17.075 -0.3192 -0.4460  0.6029
 1836UDC     C320188  10.534  15.756  17.027 -0.6285 -0.9617 -1.3026
 1836UDC     C420189  10.565  15.831  16.901 -0.8495 -0.0300  0.8581
 1836UDC     C520190  10.464  15.784  16.799 -0.4885 -0.1473  0.4471
 1836UDC     C620191  10.499  15.819  16.650  0.4625 -0.9676 -0.3946
 1836UDC     C720192  10.599  15.728  16.579 -0.0992 -0.4596  0.5375
 1836UDC     C820193  10.714  15.780  16.488  0.7122  0.3631  0.3744
 1836UDC     C920194  10.817  15.676  16.443  0.3749  0.1109  0.0565
 1836UDC    C1020195  10.750  15.563  16.364 -0.4269 -0.2086 -0.6609
 1836UDC    C1120196  10.697  15.623  16.234 -0.2248 -0.1834 -0.1479
 1837UDC     C120197  16.933   4.821   1.490 -0.6202 -0.0856 -0.9007
 1837UDC     C220198  17.019   4.864   1.371  0.4159  0.1814  0.2624
 1837UDC     C320199  17.093   4.996   1.393 -0.0808 -0.3901  0.3593
 1837UDC     C420200  17.167   5.076   1.284 -0.6861 -0.1330  0.1808
 1837UDC     C520201  17.210   4.967   1.189  0.2352 -0.6386  0.5792
 1837UDC     C620202  17.253   5.008   1.044  0.9763  0.0628 -0.5226
 1837UDC     C720203  17.221   4.904   0.934 -0.0743 -1.0053 -0.7406
 1837UDC     C820204  17.089   4.831   0.961  0.7979 -0.0113  0.3929
 1837UDC     C920205  17.090   4.670   0.922 -0.7691 -0.0654  0.1653
 1837UDC    C1020206  16.955   4.592   0.929 -0.0678 -0.1099  0.8872
 1837UDC    C1120207  16.947   4.438   0.904 -0.1861  0.1204 -0.2553
 1838UDC     C120208   7.435  14.943   7.022  0.0563  0.5909  1.3287
 1838UDC     C220209   7.448  14.985   6.875 -0.2954 -1.4685  0.6348
 1838UDC     C320210   7.365  14.889   6.793  0.8413  0.2940  0.3241
 1838UDC     C420211   7.358  14.940   6.648 -0.4290 -0.2061  0.8071
 1838UDC     C520212   7.218  14.982   6.596 -0.0570  0.3853  0.4287
 1838UDC     C620213   7.186  15.126   6.556 -0.2139  0.2000  0.5945
 1838UDC     C720214   7.172  15.220   6.669  0.9469 -0.5537 -0.8725
 1838UDC     C820215   7.079  15.144   6.767  0.1491  0.1096  0.1772
 1838UDC     C920216   7.050  15.225   6.894  0.8366 -0.2186 -0.6405
 1838UDC    C1020217   6.936  15.155   6.979 -1.2026 -0.7943  0.3013
 1838UDC    C1120218   6.876  15.240   7.091  0.1534 -0.4061  0.4589
 1839UDC     C120219  14.396  12.009  14.665  0.1385 -0.3696  0.2045
 1839UDC     C220220  14.395  12.028  14.819 -0.2181  1.2017 -0.0336
 1839UDC     C320221  14.517  12.115  14.863 -0.0187  0.7899  1.2100
 1839UDC     C420222  14.641  12.036  14.909 -0.0943  0.2707  1.5131
 1839UDC     C520223  14.775  12.117  14.873  0.2920 -0.1996  0.1023
 1839UDC     C620224  14.914  12.066  14.875 -0.9102  1.0662 -0.4744
 1839UDC     C720225  15.032  12.169  14.897 -0.2730  0.3522  0.4018
 1839UDC     C820226  15.184  12.140  14.908  0.8142 -1.1867  0.1999
 1839UDC     C920227  15.282  12.258  14.932  0.3170 -0.2147 -0.1616
 1839UDC    C1020228  15.417  12.188  14.958 -1.7946  0.2862 -0.2673
 1839UDC    C1120229  15.504  12.149  14.840 -0.4109  0.1146 -0.1521
 1840UDC     C120230  10.657   8.775   5.802  0.2898  0.2821 -0.1563
 1840UDC     C220231  10.524   8.768   5.735  0.7599  0.5620  0.4115
 1840UDC     C320232  10.506   8.623   5.679  0.6084  0.0562  0.2319
 1840UDC     C420233  10.381   8.587   5.589  0.7583  0.0269 -0.0965
 1840UDC     C520234  10.408   8.453   5.506 -0.3192  1.1329  0.1745
 1840UDC     C620235  10.280   8.363   5.491 -0.5687 -0.1329  0.2207
 1840UDC     C720236  10.299   8.253   5.383  0.0794  0.0576 -0.1088
 1840UDC     C820237  10.182   8.240   5.284  0.7217 -0.8368  0.7081
 1840UDC     C920238  10.224   8.147   5.169 -0.0470 -0.7953 -0.3404
 1840UDC    C1020239  10.107   8.117   5.069  0.4308 -0.9422 -0.6210
 1840UDC    C1120240   9.982   8.115   5.159 -0.1538  0.3678 -0.5285
 1841UDC     C120241  14.473   4.450  12.039 -0.4857 -0.9118  0.2986
 1841UDC     C220242  14.417   4.577  11.971 -0.1272 -0.4438 -0.7278
 1841UDC     C320243  14.296   4.649  12.031  0.5252 -0.1262  1.2096
 1841UDC     C420244  14.175   4.564  12.051 -0.2445  0.5865  0.3236
 1841UDC     C520245  14.051   4.636  12.102 -0.8699 -0.8973  1.0240
 1841UDC     C620246  14.006   4.762  12.024  0.1426 -0.3442 -0.7969
 1841UDC     C720247  13.863   4.817  12.032  0.2472  0.5362  0.3032
 1841UDC     C820248  13.864   4.950  11.949 -0.9680 -0.5786 -0.0126
 1841UDC     C920249  13.884   4.937  11.799 -0.4022  0.6259 -0.4765
 1841UDC    C1020250  13.884   5.069  11.727  0.0288 -0.1232  1.4210
 1841UDC    C1120251  13.903   5.069  11.576 -0.7574  0.4757  0.5183
 1842UDC     C120252  18.902   3.848   2.569 -0.1404 -0.3081 -0.2007
 1842UDC     C220253  18.813   3.717   2.585 -1.2422 -0.4558  0.2418
 1842UDC     C320254  18.719   3.751   2.711  0.0207 -0.0672  1.1457
 1842UDC     C420255  18.614   3.646   2.707  0.1761  1.0690 -0.6874
 1842UDC     C520256  18.498   3.671   2.807  0.5136 -0.1663  0.6901
 1842UDC     C620257  18.433   3.810   2.761  0.4925  0.2454 -0.6446
 1842UDC     C720258  18.324   3.830   2.653 -0.3941 -0.7291 -0.0101
 1842UDC     C820259  18.310   3.967   2.592  1.1440  0.6304  0.1125
 1842UDC     C920260  18.302   3.961   2.439 -0.0956  0.0192  0.0903
 1842UDC    C1020261  18.220   4.080   2.376 -0.5594  0.3487 -0.0208
 1842UDC    C1120262  18.201   4.073   2.225 -0.6180  0.6807  0.2176
 1843UDC     C120263  15.033  10.051   4.985 -0.0247  0.1826  0.2903
 1843UDC     C220264  14.882  10.065   4.946  1.0586  0.5907 -0.4538
 1843UDC     C320265  14.864   9.945   4.854 -1.0508  0.3920  0.1762
 1843UDC     C420266  14.723   9.925   4.793  0.0230 -0.6469 -1.3300
 1843UDC     C520267  14.592   9.928   4.882  0.4871  0.0896  0.1518
 1843UDC     C620268  14.577   9.810   4.975 -0.5706 -0.3570 -0.2868
 1843UDC     C720269  14.494   9.855   5.101  0.2611 -0.4915  0.2037
 1843UDC     C820270  14.448   9.729   5.181  0.3105  0.0492  0.7904
 1843UDC     C920271  14.403   9.748   5.321 -0.0971  0.3421 -0.1743
 1843UDC    C1020272  14.498   9.689   5.422  0.3642  1.0321  0.0114
 1843UDC    C1120273  14.465   9.663   5.569  0.4952 -0.1934  0.0284
 1844UDC     C120274   0.978  16.477   0.432 -0.4453  0.4028  0.0414
 1844UDC     C220275   0.884  16.473   0.549  0.8398  1.1174  0.3527
 1844UDC     C320276   0.963  16.483   0.681  0.6820  0.4437 -0.1295
 1844UDC     C420277   0.874  16.529   0.805  0.7889 -0.4506 -1.3437
 1844UDC     C520278   0.934  16.546   0.950  0.1582  0.4543  0.1899
 1844UDC     C620279   0.850  16.649   1.031 -0.1824 -0.4169 -0.2672
 1844UDC     C720280   0.731  16.583   1.100 -0.7958 -0.0380 -0.1476
 1844UDC     C820281   0.649  16.695   1.164 -0.1117 -0.4154 -0.2462
 1844UDC     C920282   0.516  16.654   1.224  1.3089  0.3315 -0.4260
 1844UDC    C1020283   0.497  16.610   1.371 -0.2143  0.3493 -0.0040
 1844UDC    C1120284   0.419  16.477   1.377 -0.0339 -0.2919 -0.4132
 1845UDC     C120285  11.638  12.035   4.471 -0.4362 -0.0784  0.4033
 1845UDC     C220286  11.627  11.885   4.449  1.4850 -0.7467 -0.3906
 1845UDC     C320287  11.741  11.815   4.520 -0.5273  0.1701 -0.1725
 1845UDC     C420288  11.771  11.877   4.662  0.4205  0.5010 -0.0132
 1845UDC     C520289  11.818  11.777   4.768  0.0726 -0.2699  0.2624
 1845UDC     C620290  11.967  11.778   4.755 -0.1959  0.4263 -0.1856
 1845UDC     C720291  12.037  11.670   4.838  0.5345 -0.0150 -0.9826
 1845UDC     C820292  12.029  11.516   4.804 -0.1398  0.0854  0.4959
 1845UDC     C920293  11.999  11.442   4.935  0.0070  0.9234 -0.4900
 1845UDC    C1020294  11.866  11.471   5.006 -0.7203 -0.1832  0.2372
 1845UDC    C1120295  11.848  11.389   5.125 -0.0528  0.4458 -0.2436
 1846UDC     C120296  16.060  14.369   0.989 -0.0896 -0.4150 -0.3981
 1846UDC     C220297  16.082  14.516   0.938  0.2726 -0.0868  0.4305
 1846UDC     C320298  16.106  14.615   1.056  0.0356  0.3121  0.0127
 1846UDC     C420299  16.063  14.762   1.047 -0.5169  0.1129 -0.2313
 1846UDC     C520300  16.138  14.843   1.152  0.6513  0.1753 -0.0116
 1846UDC     C620301  16.121  14.803   1.299  1.5059 -0.2534  0.8059
 1846UDC     C720302  16.183  14.899   1.400  0.0447 -0.0080 -0.7563
 1846UDC     C820303  16.329  14.879   1.439 -0.0208 -0.0629 -0.1979
 1846UDC     C920304  16.372  14.736   1.495  0.8496  0.0468  0.4273
 1846UDC    C1020305  16.483  14.728   1.599 -0.0482  0.0520 -1.0220
 1846UDC    C1120306  16.614  14.801   1.583  0.4197  0.4876  0.0706
 1847UDC     C120307  14.751  19.730   8.783 -0.8744 -0.2408 -0.2432
 1847UDC     C220308  14.808  19.827   8.888 -1.0359 -0.2669  0.9331
 1847UDC     C320309  14.834  19.772   9.029  0.5840  0.6242 -0.6097
 1847UDC     C420310  14.882  19.873   9.126 -0.0212  0.1498  0.3777
 1847UDC     C520311  14.757  19.948   9.169 -0.0887 -0.0597 -0.0198
 1847UDC     C620312  14.761  19.998   9.317  0.5435 -2.0633  0.3000
 1847UDC     C720313  14.865  20.117   9.335  0.0500  0.2363  0.0821
 1847UDC     C820314  14.831  20.267   9.324  1.1038 -0.4796 -0.3190
 1847UDC     C920315  14.954  20.358   9.331  0.5725  1.0853  1.2566
 1847UDC    C1020316  14.904  20.497   9.299  0.2845 -0.8787  1.1351
 1847UDC    C1120317  14.757  20.520   9.346 -0.5897  1.0448  0.5147
 1848UDC     C120318  17.044   3.077   0.482  0.2651 -0.5903  0.0247
 1848UDC     C220319  17.018   2.974   0.595 -0.4984 -0.1726  0.6366
 1848UDC     C320320  16.880   2.987   0.661  0.4982 -0.2360 -0.6234
 1848UDC     C420321  16.878   2.939   0.813  0.1562 -0.2720  0.2527
 1848UDC     C520322  16.752   2.985   0.882 -0.0843 -0.8251  0.5018
 1848UDC     C620323  16.749   3.009   1.035 -0.4910  0.6358  0.0581
 1848UDC     C720324  16.756   2.874   1.110 -0.4596 -1.0489  0.3562
 1848UDC     C820325  16.766   2.900   1.260 -0.0804  0.2762  0.5396
 1848UDC     C920326  16.752   2.776   1.356  0.7233 -0.3606 -0.5258
 1848UDC    C1020327  16.770   2.802   1.504 -0.3138  0.4130 -0.4280
 1848UDC    C1120328  16.921   2.837   1.527  0.9307 -0.2137 -0.0076
 1849UDC     C120329   9.324   9.306   0.599  0.2055  0.4292 -0.9574
 1849UDC     C220330   9.241   9.311   0.726 -0.1699  0.1219 -0.1208
 1849UDC     C320331   9.322   9.339   0.856  0.2952 -0.9284 -0.1395
 1849UDC     C420332   9.407   9.465   0.853  0.2520 -0.0944  0.0714
 1849UDC     C520333   9.502   9.498   0.970  0.5361  1.6969  1.2801
 1849UDC     C620334   9.429   9.542   1.095  0.0112  0.9508  0.3775
 1849UDC     C720335   9.419   9.417   1.189  0.0250 -0.4040  0.7391
 1849UDC     C820336   9.529   9.417   1.292 -1.5983 -0.5036 -0.3268
 1849UDC     C920337   9.560   9.275   1.346  0.3184 -0.0526  1.3547
 1849UDC    C1020338   9.645   9.199   1.243 -0.2189 -0.3099 -0.0588
 1849UDC    C1120339   9.733   9.085   1.300 -0.8840  0.2309  0.5663
 1850UDC     C120340  19.074   8.590  15.056  0.2759  0.0546  0.7880
 1850UDC     C220341  19.012   8.659  14.937  0.4869  0.4120  0.9827
 1850UDC     C320342  19.064   8.582  14.813  0.3514  0.0069  0.5134
 1850UDC     C420343  19.007   8.633  14.674  0.9275 -0.6140  0.0530
 1850UDC     C520344  19.037   8.524  14.575  0.3974 -0.5513  1.4699
 1850UDC     C620345  18.930   8.523  14.468 -0.2636 -0.6843  0.8772
 1850UDC     C720346  19.021   8.496  14.345 -0.7331  0.7068  0.6913
 1850UDC     C820347  18.947   8.471  14.213 -0.6876  0.5572  0.8219
 1850UDC     C920348  18.888   8.613  14.175  0.5926  0.5422 -0.2399
 1850UDC    C1020349  18.800   8.620  14.044  0.8592 -0.7778 -0.4626
 1850UDC    C1120350  18.876   8.619  13.905  0.1597  0.5343  0.9501
 1851UDC     C120351   6.780  17.392   7.508 -0.6902  0.3753 -1.3843
 1851UDC     C220352   6.811  17.270   7.592  0.8040 -0.4569  0.0975
 1851UDC     C320353   6.919  17.292   7.687  0.4126  0.6397 -0.1765
 1851UDC     C420354   6.876  17.378   7.803  0.7626 -0.0167 -0.2348
 1851UDC     C520355   6.779  17.300   7.904  0.6800  0.9490 -0.0051
 1851UDC     C620356   6.730  17.364   8.034  0.3793  0.9214 -0.0975
 1851UDC     C720357   6.837  17.371   8.143 -0.0540 -0.4422  0.6168
 1851UDC     C820358   6.901  17.234   8.187  0.0275  0.0379  0.8341
 1851UDC     C920359   7.005  17.247   8.300  0.7213 -0.0484  1.3057
 1851UDC    C1020360   6.953  17.266   8.442 -0.4579 -0.1468  0.6125
 1851UDC    C1120361   6.893  17.144   8.510 -0.5014 -0.1069  0.4651
 1852UDC     C120362  13.638  16.166  16.562 -0.9854 -0.1394 -0.1727
 1852UDC     C220363  13.631  16.131  16.707 -0.7757 -0.6756  0.1533
 1852UDC     C320364  13.553  15.991  16.735  0.7453 -1.2092 -0.2261
 1852UDC     C420365  13.399  16.009  16.730  0.8866 -0.4984  0.8760
 1852UDC     C520366  13.326  15.879  16.695 -0.4249 -1.1630  1.1423
 1852UDC     C620367  13.406  15.754  16.740 -0.6371 -0.3978 -0.3080
 1852UDC     C720368  13.327  15.625  16.714 -0.1758 -0.0549  0.7448
 1852UDC     C820369  13.417  15.518  16.661 -0.9636  0.6432 -0.6485
 1852UDC     C920370  13.456  15.530  16.523 -0.0859 -0.8451  0.0916
 1852UDC    C1020371  13.332  15.525  16.431  0.1803 -0.0671 -0.5448
 1852UDC    C1120372  13.252  15.400  16.392 -0.0026 -1.0431 -0.7218
 1853UDC     C120373   9.839   4.236   7.699 -0.2904 -1.3341 -0.0944
 1853UDC     C220374   9.978   4.263   7.763  1.3308 -0.1567  0.4491
 1853UDC     C320375  10.067   4.346   7.678 -0.6464  0.1309 -0.5738
 1853UDC     C420376  10.213   4.369   7.731 -0.0111  0.4417 -0.1127
 1853UDC     C520377  10.308   4.439   7.629 -0.0928 -0.8087  0.6634
 1853UDC     C620378  10.356   4.362   7.501  1.1241 -0.0164 -0.0949
 1853UDC     C720379  10.232   4.339   7.404  0.6001 -0.0857  0.3732
 1853UDC     C820380  10.262   4.230   7.297 -0.0901  0.5864  0.1301
 1853UDC     C920381  10.159   4.227   7.188  0.2014  0.3823  0.2272
 1853UDC    C1020382  10.022   4.268   7.237 -0.0139  0.4910 -1.2019
 1853UDC    C1120383   9.926   4.282   7.122 -0.0084  0.1117  0.4352
 1854UDC     C120384   2.814   0.713   7.172 -0.2293 -0.5212 -0.5388
 1854UDC     C220385   2.735   0.602   7.228 -0.5848 -0.9251 -0.0910
 1854UDC     C320386   2.607   0.640   7.300  1.1260 -0.0177 -0.3314
 1854UDC     C420387   2.492   0.549   7.251 -0.0116  0.1489 -0.3830
 1854UDC     C520388   2.358   0.596   7.313  0.5983 -0.5852  1.4394
 1854UDC     C620389   2.235   0.531   7.236 -0.0091  0.4633  0.5915
 1854UDC     C720390   2.115   0.589   7.311  0.2125 -0.2377 -0.1420
 1854UDC     C820391   2.076   0.520   7.447 -0.0331 -0.0360 -0.5704
 1854UDC     C920392   1.934   0.561   7.495 -0.6280  0.4691  0.0295
 1854UDC    C1020393   1.876   0.516   7.631  0.1523  0.3654 -0.0480
 1854UDC    C1120394   1.771   0.604   7.688  1.0990 -0.7201 -0.6950
 1855UDC     C120395  12.764  16.207  12.434 -1.1400  0.7434 -0.0282
 1855UDC     C220396  12.632  16.155  12.485  0.3409  0.3042 -0.3410
 1855UDC     C320397  12.569  16.260  12.572  0.4526 -0.2417 -1.6805
 1855UDC     C420398  12.430  16.213  12.623  0.0334  0.3913 -0.3388
 1855UDC     C520399  12.325  16.264  12.524  0.7321  0.0599 -0.1719
 1855UDC     C620400  12.185  16.210  12.558 -0.3921 -0.5345 -0.5544
 1855UDC     C720401  12.140  16.226  12.703 -0.3110 -1.4337  0.6951
 1855UDC     C820402  11.989  16.222  12.721 -0.6502  0.8506 -0.0671
 1855UDC     C920403  11.963  16.234  12.877  0.0400  0.7990  0.8285
 1855UDC    C1020404  11.873  16.107  12.906  0.1499 -0.7135 -0.4433
 1855UDC    C1120405  11.951  15.976  12.880 -0.0030  0.4207  0.6718
 1856UDC     C120406   8.049  14.410  15.366 -0.4530 -0.9805 -0.3983
 1856UDC     C220407   8.051  14.450  15.219  0.3768  0.2634 -0.9314
 1856UDC     C320408   8.158  14.381  15.134 -1.0410  0.1220 -0.5417
 1856UDC     C420409   8.133  14.336  14.986 -1.0198 -0.7653 -0.2363
 1856UDC     C520410   8.226  14.225  14.941 -0.7563 -0.2819  0.5940
 1856UDC     C620411   8.366  14.284  14.925  0.0431  0.0854  0.4974
 1856UDC     C720412   8.485  14.208  14.865  0.1846 -0.3062 -0.0286
 1856UDC     C820413   8.443  14.162  14.718  0.2158 -0.3762 -0.5204
 1856UDC     C920414   8.556  14.132  14.614 -0.6303  0.8292 -0.0362
 1856UDC    C1020415   8.679  14.227  14.625  0.1889  0.8478 -0.0773
 1856UDC    C1120416   8.624  14.359  14.564  0.3990 -0.1946 -0.2441
 1857UDC     C120417   2.508   2.540  17.705  0.3032  0.0865  0.9482
 1857UDC     C220418   2.413   2.664  17.696  0.4313 -0.3622 -0.0481
 1857UDC     C320419   2.285   2.663  17.781 -0.6169  0.0843 -1.0977
 1857UDC     C420420   2.202   2.794  17.754  0.5160 -0.1855 -0.8091
 1857UDC     C520421   2.150   2.810  17.609  0.2739  0.5322 -0.2612
 1857UDC     C620422   2.056   2.924  17.586 -0.4618 -0.0403  0.6835
 1857UDC     C720423   2.047   2.962  17.436 -0.7664 -0.3077  0.9084
 1857UDC     C820424   2.163   3.027  17.355 -0.5083  1.0623 -0.2132
 1857UDC     C920425   2.171   3.033  17.204  0.4013  0.1150  0.5743
 1857UDC    C1020426   2.305   3.094  17.161 -1.3170 -0.0452 -0.2581
 1857UDC    C1120427   2.439   3.030  17.210  0.7826 -0.8398  0.1559
 1858UDC     C120428  16.560   8.129   1.575 -0.7746  0.4676 -0.0141
 1858UDC     C220429  16.669   8.221   1.630 -0.4793 -0.1153  0.2472
 1858UDC     C320430  16.774   8.289   1.533 -0.2790  0.6198  0.0877
 1858UDC     C420431  16.867   8.192   1.449  0.1593 -0.1814  0.9792
 1858UDC     C520432  16.991   8.259   1.388  0.0386  0.1159 -1.2921
 1858UDC     C620433  17.116   8.164   1.398 -0.1422  0.3662  0.5708
 1858UDC     C720434  17.239   8.249   1.435 -0.0430  0.2016  0.0756
 1858UDC     C820435  17.206   8.381   1.508  0.7711 -0.6832 -0.7251
 1858UDC     C920436  17.315   8.486   1.520  0.3569 -0.5824  0.7174
 1858UDC    C1020437  17.435   8.422   1.604  1.4575 -0.5357  1.1601
 1858UDC    C1120438  17.427   8.464   1.749  0.0602 -0.3297 -1.3088
 1859UDC     C120439   1.024  19.033  12.547  0.5390  0.4351  0.1636
 1859UDC     C220440   1.045  18.886  12.585  0.1279  1.0736 -0.0369
 1859UDC     C320441   1.172  18.832  12.518 -0.2492 -0.2566  0.0703
 1859UDC     C420442   1.224  18.691  12.570 -0.5342 -1.4077 -0.3823
 1859UDC     C520443   1.263  18.667  12.716  0.3704 -1.1086 -0.5479
 1859UDC     C620444   1.328  18.530  12.735  0.4623 -1.5775  0.3375
 1859UDC     C720445   1.245  18.429  12.813 -0.2524  0.1749 -0.8754
 1859UDC     C820446   1.235  18.455  12.969  0.4110 -0.1665 -0.0176
 1859UDC     C920447   1.147  18.377  13.069  0.2461  0.4635  0.5079
 1859UDC    C1020448   1.212  18.407  13.208 -0.2839  0.4294 -0.1552
 1859UDC    C1120449   1.221  18.300  13.317 -0.1589  0.3956  0.5586
 1860UDC     C120450  13.651   3.641  10.826  0.9744  0.3625  1.5153
 1860UDC     C220451  13.667   3.502  10.778  0.2517  0.6984  0.1790
 1860UDC     C320452  13.600   3.385  10.849  0.3358  0.6468 -0.0175
 1860UDC     C420453  13.690   3.256  10.847  0.6595  0.6333 -0.4740
 1860UDC     C520454  13.618   3.126  10.890  0.8362  0.3320 -0.7081
 1860UDC     C620455  13.485   3.103  10.819 -0.0072  0.2259  0.3851
 1860UDC     C720456  13.511   3.049  10.679 -0.4035 -1.5002  1.1426
 1860UDC     C820457  13.382   3.030  10.609 -0.6121  1.3123 -1.1126
 1860UDC     C920458  13.300   2.909  10.658  0.3435  0.7976  0.0022
 1860UDC    C1020459  13.155   2.920  10.611 -0.2583  0.2687 -0.3667
 1860UDC    C1120460  13.063   2.827  10.684  0.4025 -1.0049  0.3599
 1861UDC     C120461   4.924   0.055  12.009 -1.2706  0.1430  0.6814
 1861UDC     C220462   5.050   0.146  11.972  0.1581 -0.5217  0.3615
 1861UDC     C320463   5.009   0.190  11.823  0.0438 -0.4854  1.0165
 1861UDC     C420464   4.984   0.083  11.712 -0.4588  0.5819 -0.2406
 1861UDC     C520465   4.933   0.141  11.582  0.8679 -0.2434  0.9144
 1861UDC     C620466   4.856   0.047  11.483  0.1424  0.6651  0.5032
 1861UDC     C720467   4.926  -0.083  11.432  0.3049  0.6309 -0.2961
 1861UDC     C820468   5.060  -0.051  11.371  0.8975 -1.4603 -0.6939
 1861UDC     C920469   5.075  -0.001  11.228 -0.4175  1.3893  0.3198
 1861UDC    C1020470   5.035  -0.089  11.109 -0.2055  0.6650 -1.0771
 1861UDC    C1120471   5.151  -0.176  11.082 -0.6048 -0.1520 -0.0492
 1862UDC     C120472  15.720   4.926   1.716 -0.0783  0.1447  0.5531
 1862UDC     C220473  15.724   4.800   1.622 -0.3940 -0.0982 -0.1248
 1862UDC     C320474  15.726   4.844   1.469  0.1938 -0.5088  0.1647
 1862UDC     C420475  15.831   4.954   1.428  0.2148 -0.3002  0.0047
 1862UDC     C520476  15.809   5.011   1.285 -0.3480 -0.4898  0.6241
 1862UDC     C620477  15.889   5.142   1.258  0.2411 -0.2139 -0.5092
 1862UDC     C720478  15.841   5.260   1.344 -0.0783 -0.2261  0.0375
 1862UDC     C820479  15.962   5.363   1.367 -0.6595  0.0376  0.2364
 1862UDC     C920480  16.098   5.310   1.423 -0.3309  0.1468 -0.2562
 1862UDC    C1020481  16.207   5.417   1.410  0.6723  0.2511 -0.5710
 1862UDC    C1120482  16.355   5.383   1.434 -0.4069 -0.1636 -0.1345
 1863UDC     C120483   0.270   2.409   8.236  0.3108  0.8862 -0.0784
 1863UDC     C220484   0.228   2.537   8.173 -0.1686 -0.1145 -0.2716
 1863UDC     C320485   0.146   2.626   8.270  0.6438 -0.0917  0.0938
 1863UDC     C420486   0.227   2.745   8.324 -1.1070 -0.5907 -0.2577
 1863UDC     C520487   0.145   2.865   8.397 -0.6335 -1.2303  0.4716
 1863UDC     C620488   0.172   3.004   8.327  1.1108  0.2382 -0.3262
 1863UDC     C720489   0.064   3.038   8.217 -0.4957  0.1662  0.2730
 1863UDC     C820490  -0.059   3.093   8.296 -0.4886  0.4103 -0.9231
 1863UDC     C920491  -0.067   3.214   8.384 -0.3210  0.3288  0.1123
 1863UDC    C1020492  -0.077   3.355   8.312 -0.6929  0.2700 -0.1902
 1863UDC    C1120493  -0.052   3.481   8.395 -0.3656 -0.8068  0.1723
 1864UDC     C120494  11.881  13.893   5.530 -0.3069 -0.0015 -1.0831
 1864UDC     C220495  11.806  14.022   5.570  0.1494 -0.0323 -1.2418
 1864UDC     C320496  11.673  14.037   5.502  0.1362 -0.8346 -0.7895
 1864UDC     C420497  11.587  13.919   5.538  0.6173 -0.4066 -0.2780
 1864UDC     C520498  11.444  13.933   5.491  0.3872 -0.2616  1.0044
 1864UDC     C620499  11.385  14.066   5.527  0.5632 -0.0602  0.5805
 1864UDC     C720500  11.337  14.094   5.671  0.9454  0.2226  0.5294
 1864UDC     C820501  11.301  14.244   5.672 -0.0868 -0.5754  0.0457
 1864UDC     C920502  11.204  14.272   5.794  0.8330 -0.0029 -0.5077
 1864UDC    C1020503  11.062  14.293   5.739 -0.8441 -0.4756 -0.0366
 1864UDC    C1120504  10.950  14.283   5.845  0.1501 -0.9114 -0.1948
 1865UDC     C120505  14.625  17.584   4.138 -0.5090 -0.2030  0.1084
 1865UDC     C220506  14.522  17.556   4.015 -0.5426 -1.2065 -0.5257
 1865UDC     C320507  14.376  17.533   4.068  1.3957 -0.8492 -0.2424
 1865UDC     C420508  14.270  17.504   3.950  0.9153 -0.6385 -0.7385
 1865UDC     C520509  14.144  17.572   4.000 -0.9133  1.0342 -0.4141
 1865UDC     C620510  14.048  17.575   3.886 -0.6276 -1.5186  0.2427
 1865UDC     C720511  14.093  17.651   3.756 -1.0067 -0.3857 -0.7470
 1865UDC     C820512  14.070  17.801   3.751 -0.5145 -0.3149  0.0059
 1865UDC     C920513  13.920  17.849   3.737  0.1424 -1.2198  0.7371
 1865UDC    C1020514  13.919  18.000   3.747 -1.0749 -0.2964  0.3412
 1865UDC    C1120515  13.788  18.065   3.709  1.2084  0.4886  0.0252
 1866UDC     C120516   2.938   3.868   2.989 -0.0723  0.1236  0.4159
 1866UDC     C220517   2.922   3.937   2.854  0.1328  0.0725 -0.1579
 1866UDC     C320518   2.970   4.083   2.858 -0.0149  0.0753  0.0093
 1866UDC     C420519   2.944   4.176   2.739 -0.2483 -0.1142  0.1230
 1866UDC     C520520   2.961   4.323   2.764  0.1184 -0.0998 -0.0559
 1866UDC     C620521   2.967   4.402   2.631  0.3031  0.4541  0.4152
 1866UDC     C720522   2.937   4.551   2.629  1.1940  0.9964  0.9782
 1866UDC     C820523   2.974   4.598   2.489 -0.2853 -0.7749 -0.2082
 1866UDC     C920524   3.120   4.571   2.450 -0.6853  0.9801 -0.4080
 1866UDC    C1020525   3.133   4.599   2.301 -0.1523 -0.8083  0.6046
 1866UDC    C1120526   3.065   4.497   2.207  0.5639  0.2313 -0.0581
 1867UDC     C120527  14.651   8.708   8.497 -1.2195 -0.0953  0.6004
 1867UDC     C220528  14.691   8.709   8.346 -0.2988 -0.1204 -0.6349
 1867UDC     C320529  14.786   8.592   8.299  1.0065 -0.8250 -0.5321
 1867UDC     C420530  14.825   8.616   8.148  0.7069  0.5651 -1.9649
 1867UDC     C520531  14.900   8.504   8.077 -0.5140  0.2545 -0.4160
 1867UDC     C620532  14.896   8.524   7.925 -0.4812 -0.3496 -0.2500
 1867UDC     C720533  14.965   8.650   7.868  0.6407 -0.9940 -0.4506
 1867UDC     C820534  14.993   8.661   7.717 -0.9814  0.3616  0.1913
 1867UDC     C920535  14.884   8.755   7.656 -0.3449 -0.8305 -0.1081
 1867UDC    C1020536  14.893   8.771   7.501 -0.1500  0.4676 -0.1145
 1867UDC    C1120537  14.849   8.900   7.437 -0.0037  0.6387  0.6974
 1868UDC     C120538   7.737  11.658  14.231 -0.9266  0.1976  0.5717
 1868UDC     C220539   7.696  11.514  14.209 -0.8232 -0.6758 -0.3261
 1868UDC     C320540   7.715  11.422  14.328 -0.6242  0.8424  0.4999
 1868UDC     C420541   7.690  11.270  14.290  0.7881  1.2337 -0.1285
 1868UDC     C520542   7.547  11.223  14.239 -0.1518  0.2828  0.5888
 1868UDC     C620543   7.429  11.202  14.335  0.3697 -0.7786 -0.1023
 1868UDC     C720544   7.320  11.112  14.273  0.2402 -1.0818  0.5106
 1868UDC     C820545   7.261  11.007  14.358 -0.0712  0.0449 -0.4942
 1868UDC     C920546   7.177  11.066  14.472 -0.6741  0.5660  0.1242
 1868UDC    C1020547   7.094  10.957  14.553  0.1756 -1.1752 -0.5326
 1868UDC    C1120548   7.155  10.921  14.695 -0.0808 -0.3689 -0.0473
 1869UDC     C120549   7.405   2.990  15.678 -0.9270 -1.5587  1.2190
 1869UDC     C220550   7.340   2.894  15.578  0.3138 -1.6154  0.2236
 1869UDC     C320551   7.260   2.964  15.472 -0.6038 -0.5721 -0.3353
 1869UDC     C420552   7.128   3.038  15.501  0.1436 -0.5570 -0.8094
 1869UDC     C520553   7.057   3.014  15.635  0.3691 -0.1637  0.2366
 1869UDC     C620554   6.953   3.114  15.678  0.2759 -0.1686  0.0526
 1869UDC     C720555   6.884   3.088  15.807  0.1227 -0.7052 -0.9967
 1869UDC     C820556   6.785   3.199  15.851  0.9053  1.3362  0.0684
 1869UDC     C920557   6.635   3.161  15.815  0.2806  0.5794 -0.0109
 1869UDC    C1020558   6.536   3.229  15.901 -1.0430 -0.2788  0.7453
 1869UDC    C1120559   6.556   3.250  16.047  0.1285  0.3780 -0.4194
 1870UDC     C120560  18.830   1.616  11.371 -0.8153  0.2688  0.8925
 1870UDC     C220561  18.891   1.485  11.303 -0.3031 -0.3561 -0.4497
 1870UDC     C320562  19.040   1.481  11.290 -0.1335  0.9989  0.0749
 1870UDC     C420563  19.082   1.341  11.242 -0.3720 -0.3434  1.3309
 1870UDC     C520564  19.231   1.309  11.209 -0.4122  0.4712 -0.4425
 1870UDC     C620565  19.315   1.306  11.338 -0.2408 -0.8296 -1.0807
 1870UDC     C720566  19.267   1.216  11.460  0.1549 -0.3799  0.0733
 1870UDC     C820567  19.341   1.262  11.586 -0.7955  0.3575  1.6674
 1870UDC     C920568  19.293   1.193  11.711 -0.5111  0.4521 -0.0600
 1870UDC    C1020569  19.382   1.067  11.745  1.2662  0.0616 -0.1569
 1870UDC    C1120570  19.385   1.008  11.885 -0.1379 -0.3546 -0.4243
 1871UDC     C120571  12.651   7.629   3.872 -0.4540 -0.2422 -0.9088
 1871UDC     C220572  12.717   7.553   3.985  0.7448  0.4715  0.6361
 1871UDC     C320573  12.859   7.583   4.036 -0.0108  0.0836 -0.7799
 1871UDC     C420574  12.867   7.737   4.057 -1.3188 -0.6404  1.1897
 1871UDC     C520575  13.000   7.810   4.082  0.3885 -0.6434 -0.9777
 1871UDC     C620576  13.111   7.797   3.981 -0.8200 -0.6226 -0.5278
 1871UDC     C720577  13.240   7.866   4.036  0.1123  0.7337  1.1092
 1871UDC     C820578  13.266   7.849   4.194 -0.5935 -0.5772  0.1747
 1871UDC     C920579  13.412   7.886   4.234 -0.9614 -0.0339  0.1655
 1871UDC    C1020580  13.451   7.783   4.338  0.4533  0.8834 -0.3792
 1871UDC    C1120581  13.589   7.714   4.319 -0.2986  0.1233 -0.3043
 1872UDC     C120582  18.031  17.417   0.095 -0.2852  0.2086 -1.0896
 1872UDC     C220583  17.888  17.441   0.035 -0.1697 -0.7182 -0.4461
 1872UDC     C320584  17.781  17.339   0.079 -0.4122  1.2932 -0.1382
 1872UDC     C420585  17.763  17.349   0.233  0.6632 -0.9917 -0.7305
 1872UDC     C520586  17.618  17.350   0.269  0.1375 -0.5873 -0.3939
 1872UDC     C620587  17.538  17.448   0.187  0.0686 -0.3772  0.3808
 1872UDC     C720588  17.384  17.459   0.221 -0.7278  0.8918 -0.5818
 1872UDC     C820589  17.300  17.358   0.140 -0.0516 -1.3928  0.0438
 1872UDC     C920590  17.144  17.360   0.176  0.6871 -1.1895 -0.1856
 1872UDC    C1020591  17.067  17.235   0.134  0.1466  0.6112 -1.1785
 1872UDC    C1120592  17.073  17.210  -0.012 -0.2320 -0.1367  0.7287
 1873UDC     C120593   4.519  16.354   9.655  2.4157  0.7353  0.4389
 1873UDC     C220594   4.628  16.364   9.549 -0.0114  0.8466  0.0166
 1873UDC     C320595   4.662  16.504   9.489 -0.8344  0.0322  0.5333
 1873UDC     C420596   4.632  16.522   9.340 -0.2294 -0.0560  0.8601
 1873UDC     C520597   4.656  16.670   9.293 -0.5648 -0.0141 -0.7452
 1873UDC     C620598   4.545  16.773   9.330  0.6464 -0.7372 -0.1180
 1873UDC     C720599   4.408  16.694   9.352 -0.4207 -0.2596 -0.8971
 1873UDC     C820600   4.295  16.797   9.389  0.1410  0.2472 -0.2213
 1873UDC     C920601   4.176  16.727   9.458  0.4701  0.0791 -0.7797
 1873UDC    C1020602   4.111  16.785   9.584 -0.6016 -0.1997  0.0930
 1873UDC    C1120603   4.141  16.717   9.719 -0.0090 -0.7372  0.3958
 1874UDC     C120604   3.151   7.805  19.922  0.0104 -0.2379  1.5822
 1874UDC     C220605   3.136   7.852  19.770 -0.1884 -0.0904 -0.4030
 1874UDC     C320606   3.062   7.989  19.740 -0.0410 -0.0025 -0.1119
 1874UDC     C420607   2.921   8.012  19.801 -0.8897 -0.1193  0.8599
 1874UDC     C520608   2.851   8.135  19.750 -0.2600 -0.0629  0.0372
 1874UDC     C620609   2.704   8.116  19.765 -0.2915 -0.1999 -0.0379
 1874UDC     C720610   2.642   8.234  19.846 -0.4610 -1.1950  0.1848
 1874UDC     C820611   2.551   8.197  19.967  0.2856 -0.1816  0.1118
 1874UDC     C920612   2.498   8.318  20.050 -0.7001  0.5535  0.5534
 1874UDC    C1020613   2.354   8.336  20.009  0.9465  0.4948 -0.3969
 1874UDC    C1120614   2.301   8.436  20.108 -0.1338 -0.3450  0.2510
 1875UDC     C120615  10.789  19.891   4.003  0.1106 -0.4007  0.7380
 1875UDC     C220616  10.724  19.851   4.132 -0.1376  1.5737 -0.0674
 1875UDC     C320617  10.799  19.834   4.262  0.0446 -0.1553 -0.1615
 1875UDC     C420618  10.696  19.835   4.384 -0.6329 -0.8922  0.0137
 1875UDC     C520619  10.769  19.831   4.513 -0.7972  0.0136  0.7307
 1875UDC     C620620  10.693  19.831   4.643 -0.0920 -0.1217  0.2964
 1875UDC     C720621  10.607  19.945   4.694  0.6874  0.9768  1.2422
 1875UDC     C820622  10.510  19.893   4.803 -1.1292  0.0574 -0.6006
 1875UDC     C920623  10.441  20.015   4.871  0.1205 -0.0952  0.2447
 1875UDC    C1020624  10.524  20.122   4.944 -0.0667  0.5640  0.7257
 1875UDC    C1120625  10.585  20.074   5.079 -0.7209  0.8486  1.0121
 1876UDC     C120626   2.349   0.399   1.630 -0.5647  0.0958 -0.0565
 1876UDC     C220627   2.316   0.395   1.480  0.7722 -0.4803 -0.1717
 1876UDC     C320628   2.431   0.360   1.387 -0.1327 -0.2445  1.1404
 1876UDC     C420629   2.396   0.389   1.243 -1.5121  0.0279 -0.8220
 1876UDC     C520630   2.282   0.307   1.187  0.1878 -1.0233 -0.1320
 1876UDC     C620631   2.238   0.350   1.048  0.1815  0.3051 -1.0499
 1876UDC     C720632   2.345   0.366   0.943  0.1571 -0.4604 -0.1977
 1876UDC     C820633   2.406   0.233   0.903  0.1506  0.5556  0.7666
 1876UDC     C920634   2.502   0.278   0.792  0.0649 -0.4275  0.5447
 1876UDC    C1020635   2.535   0.180   0.676  0.9374  0.2978 -0.5004
 1876UDC    C1120636   2.618   0.255   0.581 -0.1809 -0.4532  0.3723
 1877UDC     C120637   1.789   4.012   6.727  0.2021 -0.7648 -0.9254
 1877UDC     C220638   1.736   4.150   6.728  0.5189  1.0007  0.2453
 1877UDC     C320639   1.731   4.194   6.881  0.4850  0.3625  0.6133
 1877UDC     C420640   1.745   4.348   6.878  0.1611 -0.8563 -0.5193
 1877UDC     C520641   1.790   4.392   7.020  0.5594 -0.4866  0.5738
 1877UDC     C620642   1.669   4.442   7.096  0.1320 -0.2198  0.7029
 1877UDC     C720643   1.702   4.492   7.242 -0.1551  0.6264  0.9051
 1877UDC     C820644   1.722   4.395   7.357 -0.0040 -0.4857  0.0297
 1877UDC     C920645   1.848   4.311   7.358 -0.2114 -0.2241 -0.5368
 1877UDC    C1020646   1.826   4.180   7.435  0.0936 -0.1614  0.0536
 1877UDC    C1120647   1.957   4.099   7.471 -0.7325 -0.1059 -0.3122
 1878UDC     C120648  19.709  10.337   7.977 -0.4427  0.0670 -1.4000
 1878UDC     C220649  19.617  10.251   7.894  0.1807  0.2451  0.4167
 1878UDC     C320650  19.687  10.132   7.831  0.1570 -0.3955 -0.4054
 1878UDC     C420651  19.796  10.201   7.743  0.2171  0.5146  1.2231
 1878UDC     C520652  19.834  10.124   7.610 -0.6573 -0.8477 -0.7891
 1878UDC     C620653  19.850   9.973   7.594  0.2374  0.4348  0.7346
 1878UDC     C720654  19.902   9.948   7.443  0.1848 -0.0128  0.7239
 1878UDC     C820655  19.817   9.989   7.320  0.0317  0.8324 -0.5131
 1878UDC     C920656  19.840   9.891   7.200 -0.5585 -0.0326  0.4466
 1878UDC    C1020657  19.826   9.951   7.058 -0.3344  0.5483 -0.8284
 1878UDC    C1120658  19.773  10.091   7.060  1.0442 -0.0645  0.7586
 1879UDC     C120659  12.116  12.433   0.490 -1.0845 -1.3240 -0.3221
 1879UDC     C220660  12.192  12.572   0.474  0.3754  0.0055  0.1642
 1879UDC     C320661  12.096  12.691   0.469  0.4530  0.1264  0.0789
 1879UDC     C420662  12.176  12.822   0.439 -0.5135  0.5059  0.4820
 1879UDC     C520663  12.084  12.936   0.432  0.5576 -1.0542  0.6030
 1879UDC     C620664  12.141  13.078   0.410 -0.1564 -0.4827 -0.2560
 1879UDC     C720665  12.244  13.129   0.511 -0.3602 -0.4515  0.0351
 1879UDC     C820666  12.400  13.113   0.488 -1.3675 -0.6753  0.0476
 1879UDC     C920667  12.463  12.973   0.470  0.3485 -0.5333  0.0523
 1879UDC    C1020668  12.606  12.956   0.509  0.1429  0.0089  0.3993
 1879UDC    C1120669  12.632  12.804   0.510 -0.6980 -0.5512 -1.1356
 1880UDC     C120670  13.124   5.812  15.673 -0.0930 -0.7049 -0.7366
 1880UDC     C220671  13.106   5.952  15.617 -0.6239  0.1242 -1.1945
 1880UDC     C320672  12.964   6.005  15.634  0.4465  0.7823 -0.1799
 1880UDC     C420673  12.973   6.162  15.610 -0.2770  0.2964  1.0599
 1880UDC     C520674  12.885   6.199  15.492 -0.5015 -0.5389  0.6368
 1880UDC     C620675  12.741   6.189  15.522  0.1285 -0.5911 -0.3290
 1880UDC     C720676  12.666   6.251  15.402 -0.4787  0.2584 -0.0163
 1880UDC     C820677  12.603   6.392  15.431 -0.2700 -0.1854 -0.0185
 1880UDC     C920678  12.473   6.412  15.515 -0.2780  1.0742 -0.0950
 1880UDC    C1020679  12.414   6.543  15.545  0.0655 -0.4190 -0.7078
 1880UDC    C1120680  12.367   6.635  15.431 -0.3038  1.6041 -0.0441
 1881UDC     C120681   5.847  17.855  16.171  0.2374  0.0094  0.7384
 1881UDC     C220682   5.869  17.706  16.222 -0.5730 -1.0522 -0.4148
 1881UDC     C320683   5.993  17.696  16.311 -0.2420 -0.5068 -0.8826
 1881UDC     C420684   6.122  17.628  16.238  0.9051 -0.4483 -0.3719
 1881UDC     C520685   6.253  17.698  16.271 -0.1834  0.8546  0.3215
 1881UDC     C620686   6.361  17.581  16.263  0.9732 -0.7707 -0.2501
 1881UDC     C720687   6.293  17.451  16.314 -0.5687 -0.2976 -0.9321
 1881UDC     C820688   6.384  17.333  16.292 -0.9737  0.1090 -0.8793
 1881UDC     C920689   6.420  17.321  16.143 -0.7707  0.8242 -0.3203
 1881UDC    C1020690   6.521  17.197  16.124 -0.4183  0.3182  0.5862
 1881UDC    C1120691   6.577  17.193  15.982  0.7455 -0.2824  0.4581
 1882UDC     C120692   8.133  14.507   2.326 -0.5169 -0.7844 -0.7193
 1882UDC     C220693   8.185  14.470   2.466 -0.0654 -1.3399 -0.2314
 1882UDC     C320694   8.334  14.445   2.460  0.1084 -0.4026 -0.1471
 1882UDC     C420695   8.396  14.583   2.492  0.8116 -0.1924  0.3101
 1882UDC     C520696   8.441  14.577   2.633 -0.2005 -0.3918 -0.3906
 1882UDC     C620697   8.487  14.703   2.707  0.5548 -0.0287 -0.2969
 1882UDC     C720698   8.584  14.671   2.825  0.4948 -0.6548 -0.8752
 1882UDC     C820699   8.547  14.689   2.971 -0.2116  1.1031 -1.0019
 1882UDC     C920700   8.556  14.829   3.041 -0.2108  0.4806 -0.6922
 1882UDC    C1020701   8.674  14.912   2.984  0.5439  0.1462  0.0910
 1882UDC    C1120702   8.737  15.039   3.044  0.0542  0.6292  0.9790
 1883UDC     C120703  18.389   6.650  12.946  0.1284 -0.0643 -0.5035
 1883UDC     C220704  18.264   6.710  13.023 -0.8254  0.4860  0.3004
 1883UDC     C320705  18.142   6.614  13.025 -1.3116  0.8394  1.8123
 1883UDC     C420706  18.136   6.506  13.135  0.3805 -0.8613  0.8163
 1883UDC     C520707  18.069   6.374  13.097 -0.3029  0.4237 -0.3532
 1883UDC     C620708  18.110   6.255  13.189 -0.0145 -0.3081  0.3250
 1883UDC     C720709  18.043   6.132  13.132  0.0515  0.1293 -0.9589
 1883UDC     C820710  17.927   6.071  13.212 -0.0075  0.2971 -0.3697
 1883UDC     C920711  17.899   5.929  13.146  0.2818 -0.8756 -0.8500
 1883UDC    C1020712  17.824   5.841  13.256  0.1455  0.1832  0.5587
 1883UDC    C1120713  17.810   5.900  13.394 -1.0990 -0.1284  0.7152
 1884UDC     C120714  11.677  10.702  15.258 -0.7286  0.2430  0.1227
 1884UDC     C220715  11.762  10.828  15.226  0.0058  0.6173 -1.1175
 1884UDC     C320716  11.896  10.782  15.166  0.1182  0.2861  0.8728
 1884UDC     C420717  12.033  10.791  15.244  1.1725  0.4788 -0.5117
 1884UDC     C520718  12.151  10.824  15.150  1.3220 -0.4146  0.4174
 1884UDC     C620719  12.297  10.820  15.195 -0.1355  0.2291 -1.1993
 1884UDC     C720720  12.349  10.676  15.197  0.8580  0.0063 -0.4962
 1884UDC     C820721  12.490  10.653  15.258  0.7923 -0.4124 -0.9017
 1884UDC     C920722  12.596  10.714  15.171  0.8024 -0.2994  0.1747
 1884UDC    C1020723  12.746  10.696  15.212  1.1464  0.3641  0.7152
 1884UDC    C1120724  12.851  10.759  15.120 -0.7157 -0.0181  0.7579
 1885UDC     C120725  18.930   2.262  14.016 -0.3504 -0.4426  0.3955
 1885UDC     C220726  18.861   2.332  13.897 -0.7233  0.7264 -0.6178
 1885UDC     C320727  18.830   2.237  13.779 -0.8712  0.2915 -0.5165
 1885UDC     C420728  18.803   2.301  13.641  0.4310 -0.2306 -0.2161
 1885UDC     C520729  18.836   2.221  13.517  0.2494  1.3528 -0.2781
 1885UDC     C620730  18.817   2.277  13.384 -1.2794 -0.1763  1.3021
 1885UDC     C720731  18.935   2.372  13.341 -0.3509  0.6724 -0.5031
 1885UDC     C820732  18.927   2.415  13.186 -0.7829 -1.2171  0.1838
 1885UDC     C920733  19.063   2.468  13.118  0.1570  0.5456 -1.0818
 1885UDC    C1020734  19.041   2.556  12.995  0.7522 -0.1062 -0.0625
 1885UDC    C1120735  19.144   2.657  12.940 -0.0262 -0.5229  0.4529
 1886UDC     C120736   2.635  18.313  11.304 -0.2229  0.2309  1.3633
 1886UDC     C220737   2.550  18.271  11.419  0.7891  0.3950 -0.7851
 1886UDC     C320738   2.400  18.279  11.383 -0.3570 -0.1899  0.4944
 1886UDC     C420739   2.343  18.193  11.264  0.7368  0.2993  0.0253
 1886UDC     C520740   2.196  18.224  11.218  0.2748  0.5364 -0.2021
 1886UDC     C620741   2.174  18.374  11.192 -1.6203 -0.4223 -0.0435
 1886UDC     C720742   2.036  18.433  11.211 -0.0499 -0.3490  0.6906
 1886UDC     C820743   1.932  18.331  11.268 -0.6006 -0.0482 -0.6898
 1886UDC     C920744   1.789  18.382  11.222  0.6182 -0.0156  0.1375
 1886UDC    C1020745   1.676  18.317  11.310  0.1476  0.9213 -0.2576
 1886UDC    C1120746   1.705  18.375  11.445  0.2486  0.4937  0.0789
 1887UDC     C120747   5.374  16.138   5.780 -0.3611 -0.0873  1.0017
 1887UDC     C220748   5.259  16.228   5.810 -0.4719  0.1665  1.0427
 1887UDC     C320749   5.294  16.386   5.817 -0.4309  0.4574 -0.7411
 1887UDC     C420750   5.154  16.449   5.844  0.9502 -0.3398  0.0598
 1887UDC     C520751   5.113  16.597   5.864 -0.5201 -0.7022  0.0323
 1887UDC     C620752   4.968  16.643   5.916  0.2297 -0.1321 -0.3014
 1887UDC     C720753   4.930  16.629   6.072 -1.2099  0.2792 -0.8498
 1887UDC     C820754   4.792  16.630   6.137 -0.2147 -0.4942  0.0899
 1887UDC     C920755   4.721  16.485   6.120 -1.0984 -0.0449 -0.7153
 1887UDC    C1020756   4.584  16.502   6.073  0.2326  0.1488 -0.5148
 1887UDC    C1120757   4.557  16.544   5.928  0.1760  0.0725 -0.1552
 1888UDC     C120758   4.631  11.699  19.020  1.4407  0.2178  0.9398
 1888UDC     C220759   4.483  11.734  19.054 -0.1764  0.4004 -0.1682
 1888UDC     C320760   4.376  11.671  18.967  0.3858 -0.4339 -0.2272
 1888UDC     C420761   4.245  11.677  19.049 -0.0794  0.9954  0.8619
 1888UDC     C520762   4.135  11.624  18.953 -0.4389  0.0643 -1.3575
 1888UDC     C620763   3.995  11.654  18.985 -0.5825  0.2203  0.5875
 1888UDC     C720764   3.956  11.801  18.998 -0.3793 -0.1943 -0.5120
 1888UDC     C820765   3.963  11.893  18.875 -0.3003 -0.0183 -0.9951
 1888UDC     C920766   3.887  11.839  18.751  0.0835 -0.2462  0.3629
 1888UDC    C1020767   3.738  11.841  18.756  0.4673  0.5294  0.8867
 1888UDC    C1120768   3.666  11.971  18.801  0.6500  0.2704  1.3568
 1889UDC     C120769   5.526   7.983   7.092 -0.3951  0.0008 -0.2263
 1889UDC     C220770   5.487   8.128   7.114  0.6593 -0.5836  0.8322
 1889UDC     C320771   5.480   8.223   6.995 -0.4847 -0.2096 -0.0680
 1889UDC     C420772   5.355   8.314   6.994 -0.1311  0.2687 -0.7035
 1889UDC     C520773   5.364   8.461   6.962 -0.8229 -0.3655  1.0566
 1889UDC     C620774   5.217   8.510   6.948 -0.1906 -0.5122 -0.4838
 1889UDC     C720775   5.131   8.457   7.069 -0.4857 -0.0998  0.0111
 1889UDC     C820776   4.980   8.501   7.058 -0.1430 -0.0420  0.1016
 1889UDC     C920777   4.973   8.654   7.026  1.2489  1.5351  0.5323
 1889UDC    C1020778   4.981   8.775   7.125  0.1554  0.1760 -0.3756
 1889UDC    C1120779   4.934   8.906   7.054 -0.4435  0.7351  0.6982
 1890UDC     C120780  10.842   6.409   0.692  0.2843  0.4564 -0.1148
 1890UDC     C220781  10.783   6.286   0.764 -0.0275  0.8819 -0.7283
 1890UDC     C320782  10.639   6.251   0.729  0.0272  1.1103 -1.0052
 1890UDC     C420783  10.597   6.230   0.586  0.7623  0.1572 -1.1037
 1890UDC     C520784  10.444   6.206   0.569  0.7168 -0.5868 -0.3471
 1890UDC     C620785  10.383   6.080   0.637 -0.2560  0.4646 -0.2096
 1890UDC     C720786  10.230   6.067   0.612 -0.7206 -0.2782 -1.3555
 1890UDC     C820787  10.189   6.014   0.476  0.1020 -0.2670 -0.3929
 1890UDC     C920788  10.040   5.977   0.457  0.6823 -0.2395  0.4165
 1890UDC    C1020789   9.994   5.920   0.316  0.7623 -0.1305 -0.6218
 1890UDC    C1120790  10.000   6.016   0.208 -0.9581 -0.0140  0.0332
 1891UDC     C120791   2.405  14.812   2.229  0.1381  0.1298  0.0581
 1891UDC     C220792   2.503  14.785   2.341 -0.4296  0.7002  0.5642
 1891UDC     C320793   2.641  14.753   2.282 -0.2911 -1.0915  0.1612
 1891UDC     C420794   2.741  14.728   2.398  0.8696 -0.7816  0.3229
 1891UDC     C520795   2.893  14.724   2.373  0.6124 -0.3800  0.3280
 1891UDC     C620796   2.969  14.673   2.494  0.6764 -0.3830 -0.4163
 1891UDC     C720797   2.978  14.777   2.610 -0.3547 -0.4036  0.7246
 1891UDC     C820798   2.920  14.705   2.737  0.4378 -0.5130  0.6623
 1891UDC     C920799   3.001  14.581   2.753 -0.2068 -0.1938 -0.4627
 1891UDC    C1020800   2.959  14.516   2.889  0.8256 -0.4854  0.0279
 1891UDC    C1120801   3.020  14.381   2.915  0.0765  0.6426 -0.8811
 1892UDC     C120802  17.143  16.750   1.329  0.6886 -0.7306  0.1885
 1892UDC     C220803  17.024  16.844   1.364  1.0621  0.2319  0.0765
 1892UDC     C320804  16.990  16.845   1.510  0.4922  0.2184 -0.6734
 1892UDC     C420805  16.959  16.715   1.593  0.4264  0.4039  0.1575
 1892UDC     C520806  16.818  16.653   1.567 -0.4935 -0.6731  0.2875
 1892UDC     C620807  16.687  16.721   1.628 -0.4739  0.0459  0.6486
 1892UDC     C720808  16.566  16.644   1.617  0.9790  0.3911 -0.1624
 1892UDC     C820809  16.434  16.702   1.680  0.4827  0.8412  0.3072
 1892UDC     C920810  16.325  16.636   1.588  0.7485 -0.3633 -0.1075
 1892UDC    C1020811  16.384  16.609   1.452 -0.6656 -0.7664 -0.0491
 1892UDC    C1120812  16.263  16.594   1.355  0.5252  0.4110 -0.1646
 1893UDC     C120813   3.309  11.504   4.018  0.7474  0.2112  0.4956
 1893UDC     C220814   3.211  11.500   3.900  0.2857  1.0111 -0.4744
 1893UDC     C320815   3.259  11.536   3.758  0.9143  0.8549 -0.3592
 1893UDC     C420816   3.152  11.591   3.664 -0.0205 -0.3253 -0.5062
 1893UDC     C520817   3.202  11.678   3.552  1.1385 -0.7811  0.6080
 1893UDC     C620818   3.297  11.780   3.613  1.0281  0.4557 -0.3895
 1893UDC     C720819   3.224  11.885   3.709 -0.5370 -0.6392 -0.5022
 1893UDC     C820820   3.317  11.987   3.790  0.0635 -0.9629  0.0897
 1893UDC     C920821   3.432  11.928   3.877  0.2194  0.2552  0.5461
 1893UDC    C1020822   3.386  11.878   4.011 -0.2039 -0.4335 -0.4122
 1893UDC    C1120823   3.499  11.810   4.091 -0.0660 -0.7543 -1.0270
 1894UDC     C120824  17.660   1.115  15.810 -0.2488 -0.4767  0.5343
 1894UDC     C220825  17.717   0.977  15.783  0.1291 -0.0412  0.1576
 1894UDC     C320826  17.740   0.964  15.632  0.1066 -0.2922 -0.0350
 1894UDC     C420827  17.776   0.830  15.564  0.9984 -0.5442  0.2021
 1894UDC     C520828  17.852   0.855  15.430  0.5948  0.2799 -1.1607
 1894UDC     C620829  17.754   0.927  15.333 -1.8041 -0.6252  0.1633
 1894UDC     C720830  17.778   0.951  15.179 -0.4466  1.0243 -0.1168
 1894UDC     C820831  17.669   1.041  15.118 -0.1453 -0.0495  0.0001
 1894UDC     C920832  17.662   1.183  15.168  0.1625 -0.8204 -0.3684
 1894UDC    C1020833  17.547   1.280  15.120 -0.2714  1.0895 -0.7684
 1894UDC    C1120834  17.526   1.387  15.212 -0.6923 -0.0561  0.4064
 1895UDC     C120835   2.210  14.336   0.239  0.2734  0.9682  1.3064
 1895UDC     C220836   2.316  14.265   0.322 -0.9701 -0.6035  1.1340
 1895UDC     C320837   2.305  14.116   0.334  0.0862  0.0879  0.4423
 1895UDC     C420838   2.423  14.049   0.409  0.4147 -0.1979 -0.4603
 1895UDC     C520839   2.572  14.083   0.376  0.4638 -1.1406  0.8567
 1895UDC     C620840   2.668  13.995   0.456 -0.2110 -0.1846 -0.8015
 1895UDC     C720841   2.639  13.851   0.432 -0.7087 -0.6819  0.0770
 1895UDC     C820842   2.745  13.764   0.490 -0.1633 -0.0061  0.5000
 1895UDC     C920843   2.736  13.750   0.643  1.0506  0.1076 -0.0789
 1895UDC    C1020844   2.820  13.633   0.705  0.1123  1.1270 -0.2955
 1895UDC    C1120845   2.957  13.618   0.632  0.7583  0.0252  0.4207
 1896UDC     C120846   3.126   8.921   9.291  0.4834  0.1738  0.1024
 1896UDC     C220847   3.196   8.792   9.315 -0.7539  0.0900  0.1291
 1896UDC     C320848   3.347   8.785   9.351  0.3432 -0.6692  0.4030
 1896UDC     C420849   3.384   8.758   9.499 -0.5621  0.3158 -0.3115
 1896UDC     C520850   3.523   8.808   9.541  0.6650 -0.2087 -0.0777
 1896UDC     C620851   3.636   8.723   9.491  0.3015  0.0020  0.5778
 1896UDC     C720852   3.771   8.790   9.498 -0.3037  0.6458 -0.3911
 1896UDC     C820853   3.806   8.840   9.638 -0.3842 -0.7489 -0.1390
 1896UDC     C920854   3.923   8.945   9.645 -0.0816  0.1613  0.3657
 1896UDC    C1020855   4.044   8.863   9.609 -0.6457  0.0854 -0.0857
 1896UDC    C1120856   4.187   8.920   9.623  0.2588  0.2275 -0.7829
 1897UDC     C120857  14.793  11.553  18.060 -0.0803  0.2103  0.0079
 1897UDC     C220858  14.834  11.468  17.935  0.9771  0.0312  0.0057
 1897UDC     C320859  14.973  11.405  17.929 -1.4988 -0.0428 -0.9948
 1897UDC     C420860  15.075  11.520  17.945  1.0937 -0.3402  1.3935
 1897UDC     C520861  15.051  11.623  17.834  0.4351  0.6155  0.4038
 1897UDC     C620862  15.139  11.753  17.834 -0.9776 -0.4176  0.0061
 1897UDC     C720863  15.105  11.867  17.730  0.5404 -0.4186  0.0517
 1897UDC     C820864  14.979  11.939  17.793  1.2034  0.2309 -0.2056
 1897UDC     C920865  14.895  12.023  17.702  0.4064  0.8664  0.8688
 1897UDC    C1020866  14.750  12.066  17.741 -0.7163  0.5418  1.0228
 1897UDC    C1120867  14.736  12.139  17.877 -0.7539  0.4071  0.2053
 1898UDC     C120868   4.912  18.998   9.546 -0.4201 -0.4449 -0.2568
 1898UDC     C220869   4.810  19.058   9.449  0.2100  0.5922 -0.7804
 1898UDC     C320870   4.712  18.960   9.376 -0.0276  0.8692  0.0868
 1898UDC     C420871   4.740  18.813   9.415 -0.5018 -1.3148 -1.5424
 1898UDC     C520872   4.637  18.710   9.376 -0.6642  0.0566 -1.0929
 1898UDC     C620873   4.645  18.576   9.438  1.6163  0.1130  0.1694
 1898UDC     C720874   4.785  18.512   9.427  0.2371 -0.9536  0.7811
 1898UDC     C820875   4.816  18.453   9.283  0.4453  0.5665  0.0953
 1898UDC     C920876   4.953  18.411   9.230 -0.5174 -1.2347 -0.7125
 1898UDC    C1020877   4.946  18.258   9.248 -1.0595  0.0458  0.6155
 1898UDC    C1120878   4.979  18.225   9.392 -0.8308 -0.2251 -0.7968
 1899UDC     C120879  18.760  17.559   1.746 -1.2525  0.3315 -0.4410
 1899UDC     C220880  18.795  17.415   1.719  0.0044 -0.6334  0.1735
 1899UDC     C320881  18.738  17.303   1.805 -0.2387 -0.2996  0.0041
 1899UDC     C420882  18.594  17.258   1.759  1.4075 -0.5958 -0.9339
 1899UDC     C520883  18.497  17.175   1.859 -0.3906 -0.8492  0.4143
 1899UDC     C620884  18.430  17.267   1.957  1.0604 -1.1627  0.0873
 1899UDC     C720885  18.382  17.197   2.079  0.0037 -0.2902 -1.2556
 1899UDC     C820886  18.287  17.079   2.035  0.1491 -0.0677  0.8822
 1899UDC     C920887  18.250  16.973   2.140  0.0260  0.2083  0.1623
 1899UDC    C1020888  18.370  16.910   2.220  0.7086 -0.8451  0.0017
 1899UDC    C1120889  18.354  16.885   2.381  0.3841  0.0273  0.7090
 1900UDC     C120890  11.242  10.241  16.692 -0.1442 -0.0657  1.2402
 1900UDC     C220891  11.360  10.339  16.731 -0.7519 -0.8050  0.4316
 1900UDC     C320892  11.390  10.370  16.876  0.3899 -0.0317 -1.5886
 1900UDC     C420893  11.412  10.248  16.972 -0.3831 -0.1748 -0.0262
 1900UDC     C520894  11.554  10.205  16.951 -0.2121 -1.3177  0.4942
 1900UDC     C620895  11.611  10.069  16.991 -0.2497 -0.5731 -0.6298
 1900UDC     C720896  11.740  10.022  16.918  0.2478 -0.0422  0.7776
 1900UDC     C820897  11.716   9.993  16.765 -1.0283 -0.6905  0.8065
 1900UDC     C920898  11.785   9.876  16.698 -0.6785  0.4303  0.8189
 1900UDC    C1020899  11.927   9.931  16.673 -0.4520  0.6919 -0.7143
 1900UDC    C1120900  11.924  10.015  16.545 -0.2002  0.3482  0.4352
 1901UDC     C120901   1.199   7.347   4.557 -0.2557 -0.0310  0.1583
 1901UDC     C220902   1.333   7.279   4.521  0.3047  0.3370 -0.2294
 1901UDC     C320903   1.334   7.190   4.391 -0.8196  0.3486 -0.3849
 1901UDC     C420904   1.333   7.262   4.251  0.1126  0.8557 -0.7279
 1901UDC     C520905   1.438   7.184   4.171 -0.8786  1.2420 -0.0625
 1901UDC     C620906   1.455   7.200   4.017  0.5379 -0.4701  0.3593
 1901UDC     C720907   1.350   7.140   3.922 -0.0913  0.7208  0.4167
 1901UDC     C820908   1.372   7.175   3.773  0.2393  0.3358  0.3149
 1901UDC     C920909   1.496   7.267   3.735  0.1928 -0.0434  0.4162
 1901UDC    C1020910   1.480   7.355   3.605 -0.0646 -0.0251  0.5807
 1901UDC    C1120911   1.509   7.262   3.480  0.0582 -0.0940  0.8116
 1902UDC     C120912  14.404  19.069   4.647 -1.1728 -0.6098 -0.1580
 1902UDC     C220913  14.554  19.043   4.619 -0.4668  0.3553 -0.0786
 1902UDC     C320914  14.625  19.031   4.759 -1.1066  0.5774 -0.0945
 1902UDC     C420915  14.765  18.951   4.772  1.2301  0.5357  0.4990
 1902UDC     C520916  14.752  18.852   4.894  0.3257 -0.5417 -0.1959
 1902UDC     C620917  14.826  18.723   4.878 -0.2204  0.4926 -1.0245
 1902UDC     C720918  14.916  18.697   5.006  0.9130  0.1264  0.4965
 1902UDC     C820919  14.993  18.565   5.000 -1.2199 -0.5813 -0.2399
 1902UDC     C920920  14.933  18.429   5.041  0.4983  0.4200 -0.1776
 1902UDC    C1020921  15.038  18.311   5.040  0.5952  0.3028  0.1824
 1902UDC    C1120922  15.145  18.298   5.153 -0.7214 -0.2465  0.5412
 1903UDC     C120923  18.359  19.772   9.121  0.3217  0.2405 -0.2070
 1903UDC     C220924  18.433  19.897   9.095  0.0196 -0.5625  0.0060
 1903UDC     C320925  18.572  19.920   9.155 -0.0302 -0.7052 -0.3127
 1903UDC     C420926  18.702  19.874   9.087  0.0383  0.7015 -0.2230
 1903UDC     C520927  18.829  19.890   9.181 -0.9477 -0.1318  0.1210
 1903UDC     C620928  18.934  19.830   9.095 -0.6195 -0.4063 -0.0257
 1903UDC     C720929  18.992  19.926   8.992 -0.4946  0.5400  0.5988
 1903UDC     C820930  19.107  19.864   8.911 -0.1275 -0.0162  0.5303
 1903UDC     C920931  19.181  19.961   8.814 -0.7662  0.1961  0.4149
 1903UDC    C1020932  19.261  20.058   8.900  0.0519 -0.3129  0.0329
 1903UDC    C1120933  19.332  20.173   8.842 -0.9468 -0.1143 -0.6348
 1904UDC     C120934  14.635  13.162  13.354  0.6150 -0.3886 -0.3762
 1904UDC     C220935  14.766  13.238  13.331  0.5520 -0.3091 -0.3994
 1904UDC     C320936  14.739  13.382  13.372 -0.6967  0.8235 -0.5162
 1904UDC     C420937  14.677  13.394  13.514 -0.3199 -0.2508 -1.1634
 1904UDC     C520938  14.622  13.536  13.534 -0.6170  0.5157  0.7657
 1904UDC     C620939  14.534  13.533  13.659 -0.8422 -0.0267 -0.3452
 1904UDC     C720940  14.637  13.500  13.774 -0.3404  0.6426 -0.4896
 1904UDC     C820941  14.616  13.546  13.915 -0.9796  0.1215 -0.3711
 1904UDC     C920942  14.732  13.510  14.015  0.5838  0.3698  0.1008
 1904UDC    C1020943  14.713  13.572  14.156  0.2826  0.0452 -0.9156
 1904UDC    C1120944  14.583  13.532  14.225 -1.0548  0.2357  1.1850
 1905UDC     C120945   7.585  11.474  15.647 -0.7666  0.1759  0.3484
 1905UDC     C220946   7.675  11.405  15.753  0.6914  0.5089 -0.4838
 1905UDC     C320947   7.596  11.397  15.898 -0.6853  1.1001  0.5226
 1905UDC     C420948   7.673  11.312  16.006 -0.5342  0.3133  0.8164
 1905UDC     C520949   7.584  11.303  16.134 -0.4562 -0.2090  1.2753
 1905UDC     C620950   7.669  11.356  16.249  0.8493  0.2148 -0.6938
 1905UDC     C720951   7.579  11.347  16.373  0.9911 -0.0519 -0.2755
 1905UDC     C820952   7.571  11.220  16.456 -0.0246  1.0003  0.8655
 1905UDC     C920953   7.706  11.177  16.508  0.5759  0.1174  0.7774
 1905UDC    C1020954   7.750  11.200  16.660  0.1696  0.4884  1.2636
 1905UDC    C1120955   7.901  11.176  16.680 -0.0624  0.4767 -0.1599
 1906UDC     C120956   8.427  14.979  17.465 -0.9550 -0.3128 -0.5105
 1906UDC     C220957   8.376  14.863  17.551  0.0642  0.1978 -0.0271
 1906UDC     C320958   8.316  14.739  17.488 -0.2109  0.4675  0.3378
 1906UDC     C420959   8.204  14.672  17.565  0.1278 -0.4735  0.2066
 1906UDC     C520960   8.161  14.535  17.523 -0.3336  0.1209 -0.4308
 1906UDC     C620961   8.133  14.446  17.641 -0.2430 -0.0575  0.3638
 1906UDC     C720962   8.265  14.426  17.707 -0.0669  0.0929 -0.3571
 1906UDC     C820963   8.232  14.319  17.806  0.0526 -0.2340 -0.8636
 1906UDC     C920964   8.250  14.172  17.758 -0.2978  0.0713 -0.6871
 1906UDC    C1020965   8.141  14.067  17.795 -0.1209 -0.3760  0.2101
 1906UDC    C1120966   8.183  13.931  17.737  0.9057  0.1159  0.3653
 1907UDC     C120967  15.872   0.830   8.619  0.1472  0.8214 -0.6038
 1907UDC     C220968  15.786   0.782   8.735 -0.0840  0.6844  0.5514
 1907UDC     C320969  15.782   0.882   8.849  0.6878  0.2754 -0.4213
 1907UDC     C420970  15.664   0.844   8.942  0.5655  0.1983 -1.0987
 1907UDC     C520971  15.650   0.920   9.078 -0.0391 -1.0348  0.4499
 1907UDC     C620972  15.543   1.036   9.076  0.2116 -0.5048  0.4246
 1907UDC     C720973  15.489   1.064   9.215  0.0221 -1.0271 -0.6186
 1907UDC     C820974  15.365   1.156   9.191 -1.1800  1.0450  0.1015
 1907UDC     C920975  15.395   1.237   9.070 -0.6936  0.5191 -0.1693
 1907UDC    C1020976  15.289   1.346   9.043 -0.1590 -0.2684 -1.2299
 1907UDC    C1120977  15.335   1.443   8.933  0.7251 -0.4163  0.0113
 1908UDC     C120978   1.764  16.897   4.484 -0.2003 -0.4017 -0.1813
 1908UDC     C220979   1.697  16.789   4.573 -0.3670  0.0073 -0.7481
 1908UDC     C320980   1.564  16.835   4.632  0.0855 -1.1004  0.4989
 1908UDC     C420981   1.480  16.720   4.687 -1.4222 -0.5829  0.7483
 1908UDC     C520982   1.333  16.752   4.689 -0.9539  0.3270 -0.6250
 1908UDC     C620983   1.275  16.865   4.769  0.0917  0.2372  0.4512
 1908UDC     C720984   1.289  17.007   4.722  0.5172  0.0871  0.5651
 1908UDC     C820985   1.238  17.121   4.807 -0.6094 -0.1301 -0.4172
 1908UDC     C920986   1.346  17.165   4.911  0.7312  1.0550  0.4028
 1908UDC    C1020987   1.324  17.095   5.052  0.6835  0.0613  0.6487
 1908UDC    C1120988   1.414  17.146   5.162  0.0527 -0.1060  0.4303
 1909UDC     C120989  11.240  10.797  16.726 -0.1490  0.6546  0.6178
 1909UDC     C220990  11.161  10.728  16.840  0.8517  0.2420 -0.0322
 1909UDC     C320991  11.219  10.723  16.977  0.2399 -0.6875 -1.0872
 1909UDC     C420992  11.274  10.857  17.037  0.1335 -0.1687 -0.3882
 1909UDC     C520993  11.358  10.860  17.167  0.2486  0.1847  0.3093
 1909UDC     C620994  11.511  10.864  17.146 -0.3101 -0.1675 -0.3910
 1909UDC     C720995  11.597  10.801  17.268  0.6427  0.0159  0.0893
 1909UDC     C820996  11.728  10.888  17.270  0.4149  0.5355 -1.3509
 1909UDC     C920997  11.813  10.833  17.390 -0.7161  0.8305 -0.5834
 1909UDC    C1020998  11.746  10.802  17.527 -0.2458 -1.1906  0.2325
 1909UDC    C1120999  11.835  10.856  17.647 -0.5349  1.2806  0.1526
 1910UDC     C121000   4.760   7.171   4.361  0.7107 -1.5477  0.5280
 1910UDC     C221001   4.629   7.106   4.309  0.0874 -0.1630  0.0069
 1910UDC     C321002   4.662   6.965   4.244 -0.1768 -0.2940  0.5500
 1910UDC     C421003   4.741   6.992   4.118 -0.3343  0.2516  2.0263
 1910UDC     C521004   4.776   6.860   4.035 -0.8791 -0.5912 -0.2879
 1910UDC     C621005   4.929   6.841   4.034 -0.7826  1.0475  0.3899
 1910UDC     C721006   4.954   6.704   3.965 -0.9209  0.1402 -0.0921
 1910UDC     C821007   5.094   6.663   4.017  0.4786  1.3073 -0.2029
 1910UDC     C921008   5.078   6.627   4.171 -0.8657 -1.6764  0.7412
 1910UDC    C1021009   5.218   6.606   4.229 -0.6020  0.4470  0.1828
 1910UDC    C1121010   5.220   6.472   4.309  0.5351 -0.5952 -0.0236
 1911UDC     C121011  16.216   3.783   8.253  0.7402 -0.6625  0.0499
 1911UDC     C221012  16.085   3.758   8.178  1.0480 -1.0076  0.3330
 1911UDC     C321013  16.089   3.696   8.043  1.3998 -0.2219  0.7885
 1911UDC     C421014  16.186   3.757   7.940 -0.5811 -1.0084  0.7040
 1911UDC     C521015  16.211   3.690   7.803 -0.1151  0.5919  1.5367
 1911UDC     C621016  16.290   3.770   7.704 -0.0917 -0.2271  0.1549
 1911UDC     C721017  16.352   3.706   7.584 -0.2950  0.7599 -0.5473
 1911UDC     C821018  16.405   3.822   7.504 -0.7143 -0.0793 -0.8221
 1911UDC     C921019  16.407   3.773   7.362 -0.5705 -0.2787  0.3989
 1911UDC    C1021020  16.463   3.887   7.263  0.7769  0.6227 -0.5881
 1911UDC    C1121021  16.572   3.954   7.352  0.1553 -0.5749  0.3230
 1912UDC     C121022  13.990  16.222  15.145  0.4516  0.4624 -0.0972
 1912UDC     C221023  13.947  16.346  15.235 -0.4447  0.2491  0.0662
 1912UDC     C321024  13.800  16.394  15.228  0.0925  0.3829  0.3254
 1912UDC     C421025  13.679  16.318  15.278 -0.0940  0.2075 -0.2280
 1912UDC     C521026  13.589  16.286  15.158 -0.3289 -0.0280 -0.7490
 1912UDC     C621027  13.443  16.264  15.203 -0.1452  0.8337 -0.3941
 1912UDC     C721028  13.427  16.223  15.345  0.1660  1.1819 -0.2500
 1912UDC     C821029  13.382  16.084  15.380  0.4058 -0.3044 -0.7051
 1912UDC     C921030  13.358  16.085  15.539  0.4529 -0.6802  0.7948
 1912UDC    C1021031  13.377  15.935  15.587  0.8050 -0.0638 -0.6328
 1912UDC    C1121032  13.509  15.865  15.573 -0.2021 -0.2224 -0.6190
 1913UDC     C121033   3.718   7.532  14.806  0.4847 -0.3157 -0.8655
 1913UDC     C221034   3.672   7.512  14.947  0.5772 -0.4321  0.2734
 1913UDC     C321035   3.583   7.637  14.990 -0.0163  0.5117 -0.3627
 1913UDC     C421036   3.459   7.601  15.063  0.3267  0.4311  0.1227
 1913UDC     C521037   3.475   7.503  15.185 -0.1346 -0.9512  0.5708
 1913UDC     C621038   3.372   7.393  15.192  0.6732  0.1726  1.5491
 1913UDC     C721039   3.402   7.288  15.302 -0.2454  0.3452 -0.5358
 1913UDC     C821040   3.309   7.169  15.326 -0.3638  0.3574 -0.1389
 1913UDC     C921041   3.332   7.112  15.477  0.6784  0.2573  0.4742
 1913UDC    C1021042   3.334   7.226  15.583 -0.3884 -0.4482  0.1951
 1913UDC    C1121043   3.383   7.178  15.724  0.7247  0.3920  0.2839
 1914UDC     C121044  19.874   9.324   0.729  0.5815  0.8432 -0.3538
 1914UDC     C221045  20.018   9.266   0.689 -0.2150 -0.1712  0.7239
 1914UDC     C321046  20.033   9.192   0.549 -0.4005 -0.0529  0.3967
 1914UDC     C421047  20.178   9.218   0.493 -0.4437  0.3861  1.1008
 1914UDC     C521048  20.295   9.185   0.584 -0.0881 -0.5734 -0.5086
 1914UDC     C621049  20.422   9.145   0.516 -0.4851  0.6898 -0.3609
 1914UDC     C721050  20.518   9.265   0.499 -0.4062  1.2684  0.5798
 1914UDC     C821051  20.581   9.297   0.640  0.2386  0.0415  0.9544
 1914UDC     C921052  20.675   9.419   0.632  0.0454  0.4032  0.9719
 1914UDC    C1021053  20.721   9.435   0.776 -0.8103 -0.2053  0.3202
 1914UDC    C1121054  20.782   9.317   0.853  0.3716 -0.2094 -0.0447
 1915UDC     C121055  16.721   5.429  12.005  0.0156 -0.2848 -0.7367
 1915UDC     C221056  16.800   5.518  11.910 -0.3634  0.1062  0.3567
 1915UDC     C321057  16.944   5.482  11.888  1.0751 -0.3290  1.0812
 1915UDC     C421058  16.976   5.336  11.861 -0.2406  0.2130 -0.2375
 1915UDC     C521059  17.124   5.304  11.810 -0.5671  0.1889  0.1365
 1915UDC     C621060  17.140   5.161  11.750  0.5626 -1.1064 -0.0869
 1915UDC     C721061  17.269   5.121  11.672  1.1074  0.2974  0.5987
 1915UDC     C821062  17.287   5.193  11.539 -0.9309  0.9407  0.4641
 1915UDC     C921063  17.162   5.202  11.455  0.7773 -0.8896 -0.1468
 1915UDC    C1021064  17.163   5.231  11.304  0.0674  0.3275 -0.8408
 1915UDC    C1121065  17.026   5.191  11.280 -1.0441 -1.1186 -0.8424
 1916UDC     C121066   0.975   6.429  16.769 -0.8183  0.4810  1.2182
 1916UDC     C221067   0.892   6.325  16.850 -0.0721 -0.9533  0.5984
 1916UDC     C321068   0.757   6.368  16.903 -0.4054  0.3178  0.0528
 1916UDC     C421069   0.694   6.269  16.999 -0.1883  0.1281 -0.6953
 1916UDC     C521070   0.640   6.148  16.920  0.2920  0.2259 -0.3888
 1916UDC     C621071   0.486   6.157  16.903  0.5338 -0.2675 -0.8435
 1916UDC     C721072   0.393   6.129  17.021 -1.0593 -0.3667  0.1615
 1916UDC     C821073   0.248   6.150  16.967 -0.5559  1.1140 -1.1242
 1916UDC     C921074   0.213   6.299  16.968  0.1130  0.6874  0.6537
 1916UDC    C1021075   0.160   6.341  17.102 -0.3020 -0.6688 -0.5102
 1916UDC    C1121076   0.016   6.399  17.107 -1.0895 -0.0372  1.0948
 1917UDC     C121077  10.203  10.474   2.718 -0.0990  0.2854 -0.9758
 1917UDC     C221078  10.358  10.478   2.748 -0.3595  0.5371  0.3059
 1917UDC     C321079  10.421  10.620   2.774 -0.2709  0.8845  0.2310
 1917UDC     C421080  10.577  10.633   2.795 -0.4428 -0.4251 -0.5073
 1917UDC     C521081  10.630  10.597   2.935 -1.0199 -0.3918 -0.0870
 1917UDC     C621082  10.776  10.620   2.949 -0.6166  0.7729 -0.5455
 1917UDC     C721083  10.849  10.508   2.872 -0.1187 -0.2089 -1.0411
 1917UDC     C821084  10.885  10.379   2.946 -0.0622 -0.1558  1.0547
 1917UDC     C921085  10.947  10.270   2.843  0.5926 -1.0772 -0.9153
 1917UDC    C1021086  11.022  10.155   2.908 -0.2925 -0.9892 -0.4493
 1917UDC    C1121087  10.952  10.068   3.008  0.7325 -0.2063 -0.2240
 1918UDC     C121088  18.502   0.662   7.882  0.1261 -0.5133 -1.0209
 1918UDC     C221089  18.430   0.793   7.838  0.9529 -0.1500 -0.3564
 1918UDC     C321090  18.383   0.782   7.687  0.0293 -1.8428  0.5314
 1918UDC     C421091  18.494   0.722   7.612 -0.6356 -0.1675  0.2956
 1918UDC     C521092  18.506   0.734   7.457  0.4739 -0.2823 -1.2234
 1918UDC     C621093  18.380   0.693   7.376 -0.2020 -0.4799 -0.5797
 1918UDC     C721094  18.345   0.542   7.403  0.5613 -0.9212 -0.4332
 1918UDC     C821095  18.215   0.499   7.352  0.4612 -0.2151  0.9641
 1918UDC     C921096  18.121   0.420   7.442 -0.1302  1.1824  0.2985
 1918UDC    C1021097  18.044   0.479   7.567 -0.1965  0.4028  0.0732
 1918UDC    C1121098  17.947   0.396   7.650  1.0803  0.1777 -0.4545
 1919UDC     C121099   7.245   8.519   3.026  0.1579 -0.1818  0.4256
 1919UDC     C221100   7.183   8.391   3.103  0.9270  0.3201  0.5359
 1919UDC     C321101   7.045   8.430   3.151 -0.4346  0.1482  0.7930
 1919UDC     C421102   7.043   8.558   3.235 -0.5736  0.1777  0.7511
 1919UDC     C521103   6.907   8.611   3.278  1.0155  0.2886 -0.2565
 1919UDC     C621104   6.814   8.600   3.151  0.6123 -0.5974 -0.5588
 1919UDC     C721105   6.723   8.719   3.130  0.0628  0.1086 -0.2540
 1919UDC     C821106   6.789   8.837   3.049  0.2364  0.3945  0.2954
 1919UDC     C921107   6.718   8.971   3.066  0.4815  0.4776  0.8079
 1919UDC    C1021108   6.794   9.078   2.988  0.9255  0.1968 -0.2709
 1919UDC    C1121109   6.795   9.071   2.837  0.7824 -0.2038  0.5591
 1920UDC     C121110  18.902  11.964   4.749  0.1258 -0.9347  0.6175
 1920UDC     C221111  18.901  11.890   4.881  0.7056  0.5188 -0.7560
 1920UDC     C321112  19.027  11.893   4.974 -0.0410  0.3088  1.2302
 1920UDC     C421113  19.026  11.796   5.095  0.6616 -0.7006 -0.2251
 1920UDC     C521114  18.911  11.825   5.193  0.3162  0.8566 -0.1689
 1920UDC     C621115  18.872  11.703   5.283 -0.4682 -0.0531  0.7027
 1920UDC     C721116  18.800  11.591   5.208 -0.5132 -0.1108  0.5920
 1920UDC     C821117  18.768  11.473   5.302  0.5912  0.2507  0.8808
 1920UDC     C921118  18.711  11.363   5.201 -0.3209  0.9241 -0.9587
 1920UDC    C1021119  18.847  11.320   5.130  1.0836  1.3006  0.2630
 1920UDC    C1121120  18.917  11.222   5.231 -0.4934 -0.2162  0.2531
 1921UDC     C121121   2.544  17.532  12.971  0.8918 -0.5989  0.2927
 1921UDC     C221122   2.603  17.675  12.990  0.2357  0.9077  0.7154
 1921UDC     C321123   2.764  17.654  12.987 -0.7542 -0.6367  1.1552
 1921UDC     C421124   2.820  17.767  13.077  0.4455  0.5314  1.0312
 1921UDC     C521125   2.971  17.772  13.097 -0.3396 -0.2528 -0.0641
 1921UDC     C621126   3.064  17.799  12.975  1.1238 -0.3689  0.5508
 1921UDC     C721127   3.068  17.938  12.905  0.3072  0.1700 -0.2883
 1921UDC     C821128   3.135  17.937  12.762  0.2914 -0.1089  0.8243
 1921UDC     C921129   3.277  17.891  12.750 -1.2601 -1.3248  0.4435
 1921UDC    C1021130   3.339  17.944  12.622 -0.5822 -1.4699 -0.2902
 1921UDC    C1121131   3.492  17.949  12.627  0.5506 -0.2308  1.1291
 1922UDC     C121132  18.112   3.368  12.965  0.6582  0.4808 -0.1792
 1922UDC     C221133  18.120   3.442  13.100  0.6711  0.3110 -0.6192
 1922UDC     C321134  17.985   3.492  13.145 -0.3406  0.3071  0.6705
 1922UDC     C421135  17.995   3.620  13.240  0.6603 -0.8410 -0.1631
 1922UDC     C521136  17.849   3.685  13.263 -0.6168  0.0370  1.4004
 1922UDC     C621137  17.834   3.790  13.376 -0.2893 -0.6122 -0.2186
 1922UDC     C721138  17.685   3.821  13.397  0.4454  0.9419  0.7381
 1922UDC     C821139  17.665   3.943  13.483  0.7089 -0.5252 -0.1112
 1922UDC     C921140  17.543   3.939  13.583 -0.3001 -0.0822 -0.0760
 1922UDC    C1021141  17.516   4.073  13.650  0.0904 -0.5023  0.2950
 1922UDC    C1121142  17.635   4.118  13.734 -0.1922 -0.8739  0.1652
 1923UDC     C121143  15.706   5.662   2.131  0.0036 -0.0311  0.0857
 1923UDC     C221144  15.751   5.547   2.221  0.0082  0.3908 -0.2282
 1923UDC     C321145  15.896   5.499   2.176  0.8446 -0.0399  0.4651
 1923UDC     C421146  15.893   5.401   2.055  1.2303 -0.1853 -0.2453
 1923UDC     C521147  15.873   5.258   2.100 -0.2812  0.6362  0.2554
 1923UDC     C621148  15.996   5.198   2.162 -0.1139  0.3357  0.0184
 1923UDC     C721149  16.098   5.120   2.083  1.0460 -0.2246 -0.3325
 1923UDC     C821150  16.191   5.036   2.162  0.1329  0.8545 -0.0549
 1923UDC     C921151  16.282   4.963   2.062 -0.0955 -0.2700  0.0382
 1923UDC    C1021152  16.312   4.820   2.100  0.2983  0.1813  0.0836
 1923UDC    C1121153  16.454   4.774   2.063  0.0425 -0.0695 -1.7839
 1924UDC     C121154  11.256   5.802   9.484 -0.2547  0.3062 -1.5898
 1924UDC     C221155  11.379   5.877   9.553  0.5634  0.5217  0.5405
 1924UDC     C321156  11.424   5.993   9.459 -0.4504  0.4847  0.3336
 1924UDC     C421157  11.417   6.130   9.531  0.6776 -0.2779 -0.3382
 1924UDC     C521158  11.323   6.235   9.456  0.4829 -1.0046  0.1283
 1924UDC     C621159  11.362   6.268   9.316 -0.5433 -0.0630  0.5344
 1924UDC     C721160  11.280   6.376   9.253 -0.3834 -0.2405  0.0897
 1924UDC     C821161  11.325   6.416   9.118 -0.7007 -0.0900 -0.6199
 1924UDC     C921162  11.242   6.523   9.051 -0.3798 -0.8705  0.1600
 1924UDC    C1021163  11.304   6.591   8.928  0.3904 -0.1547 -0.0729
 1924UDC    C1121164  11.235   6.726   8.902 -0.4296  0.5924  0.5818
 1925UDC     C121165   2.712  11.099  18.348  1.5215  0.3910 -1.2054
 1925UDC     C221166   2.625  11.057  18.474  0.0024 -0.6100  1.2657
 1925UDC     C321167   2.695  10.957  18.567  0.5336  0.3058  0.4284
 1925UDC     C421168   2.645  10.961  18.710 -0.2805  0.2772  0.3076
 1925UDC     C521169   2.667  11.093  18.794 -0.1609 -0.5333  1.4309
 1925UDC     C621170   2.647  11.053  18.937 -1.1755  0.4523  0.3451
 1925UDC     C721171   2.613  11.155  19.044 -0.4050  0.1639 -0.6258
 1925UDC     C821172   2.483  11.228  19.018  0.7000 -0.2887 -0.1424
 1925UDC     C921173   2.475  11.343  19.133  0.5304 -0.1220 -0.0080
 1925UDC    C1021174   2.361  11.445  19.113  0.4082  0.1504  0.2852
 1925UDC    C1121175   2.342  11.502  18.975  0.2606  0.0978  0.6440
 1926UDC     C121176   1.439   7.630   1.044 -0.0319  0.1040 -0.0983
 1926UDC     C221177   1.447   7.712   0.914 -0.3808  0.7300 -0.7046
 1926UDC     C321178   1.328   7.813   0.940 -0.3737 -1.7833 -1.0828
 1926UDC     C421179   1.348   7.907   1.061 -0.1525 -1.5641  0.1337
 1926UDC     C521180   1.218   7.965   1.123 -0.1377  0.4256  1.0507
 1926UDC     C621181   1.106   7.863   1.137  1.3381 -0.8873 -0.4771
 1926UDC     C721182   1.011   7.892   1.256 -0.2237  0.3546  0.1672
 1926UDC     C821183   0.927   7.783   1.307 -1.3647  0.3215 -0.3626
 1926UDC     C921184   0.994   7.647   1.282 -0.3575 -0.9766 -1.3324
 1926UDC    C1021185   1.074   7.630   1.411  0.6589  0.2396  0.4548
 1926UDC    C1121186   1.224   7.598   1.385 -0.6542 -0.3886 -0.6325
 1927UDC     C121187  10.530  11.292  15.402  0.0008 -0.4312  0.4231
 1927UDC     C221188  10.497  11.442  15.419 -0.1551 -1.0413  0.1652
 1927UDC     C321189  10.367  11.467  15.493  1.2811 -0.0604  0.5145
 1927UDC     C421190  10.331  11.618  15.502  0.8007  0.5601 -0.3344
 1927UDC     C521191  10.343  11.680  15.364 -0.7052  0.2169 -0.2044
 1927UDC     C621192  10.229  11.646  15.265  0.3690  0.5448 -0.3642
 1927UDC     C721193  10.229  11.702  15.124  0.9341 -0.5576 -0.9561
 1927UDC     C821194  10.119  11.648  15.035  0.4433  1.0385 -0.6353
 1927UDC     C921195   9.982  11.710  15.068  0.0099  0.2683 -0.2484
 1927UDC    C1021196   9.848  11.676  14.991  0.3262  0.7159 -0.2315
 1927UDC    C1121197   9.752  11.796  14.982  0.4625  0.2100  0.2561
 1928UDC     C121198  18.888   4.525   9.299  0.5241  0.0482  0.4699
 1928UDC     C221199  18.785   4.574   9.387  0.3085  0.8662 -0.6815
 1928UDC     C321200  18.757   4.454   9.476 -0.4468 -0.5022 -0.4470
 1928UDC     C421201  18.671   4.470   9.601 -0.1369  0.2940  0.7491
 1928UDC     C521202  18.521   4.488   9.556  1.2851 -0.8384  0.2615
 1928UDC     C621203  18.407   4.502   9.673 -0.5833  0.0525 -0.0302
 1928UDC     C721204  18.262   4.538   9.631  0.3910 -1.1370  0.5570
 1928UDC     C821205  18.208   4.439   9.523  0.2426 -0.1569 -0.7994
 1928UDC     C921206  18.210   4.459   9.372 -0.4175  0.0182 -0.3004
 1928UDC    C1021207  18.144   4.591   9.326 -0.0448  0.3279 -0.2521
 1928UDC    C1121208  18.216   4.638   9.199 -0.1462  0.0474 -0.1399
 1929UDC     C121209   2.822   9.804   1.478  1.1072 -0.4131  0.0389
 1929UDC     C221210   2.817   9.932   1.561 -0.1838  0.2141  0.3030
 1929UDC     C321211   2.912   9.913   1.678  0.1415  0.6692  0.4847
 1929UDC     C421212   2.968  10.047   1.720  0.3489 -0.1805  0.3289
 1929UDC     C521213   3.114  10.039   1.686  0.7093 -0.1652 -0.4099
 1929UDC     C621214   3.185  10.181   1.691  0.1779  0.1993  1.6936
 1929UDC     C721215   3.337  10.186   1.667  0.0131 -0.1983  0.3896
 1929UDC     C821216   3.384  10.324   1.640 -0.9287  0.0806  1.2616
 1929UDC     C921217   3.528  10.323   1.671 -1.7634 -0.7966  0.1992
 1929UDC    C1021218   3.582  10.472   1.646 -0.3887  0.7345 -0.7047
 1929UDC    C1121219   3.557  10.557   1.520 -0.3672  0.0928  0.5578
 1930UDC     C121220   5.474  12.761  19.206  0.1461  1.0802  0.4957
 1930UDC     C221221   5.498  12.765  19.053  0.1762  0.1708 -0.3711
 1930UDC     C321222   5.413  12.867  18.980  0.3812 -0.1429 -0.8179
 1930UDC     C421223   5.412  12.857  18.828  0.4443  0.0978 -1.3608
 1930UDC     C521224   5.557  12.901  18.799 -1.0189  0.5709 -1.5074
 1930UDC     C621225   5.591  12.978  18.669 -0.4054  0.2889  1.1184
 1930UDC     C721226   5.703  12.923  18.589 -0.0937 -0.7931  0.3929
 1930UDC     C821227   5.837  12.973  18.652 -0.2889 -0.0368 -0.4656
 1930UDC     C921228   5.962  12.996  18.569  0.7291  0.1777 -0.1277
 1930UDC    C1021229   6.033  12.859  18.538 -0.5568  0.4649 -0.1193
 1930UDC    C1121230   6.129  12.840  18.653  0.5876  0.3743 -0.0634
 1931UDC     C121231   7.191  16.101   4.520 -0.2780 -0.1821  0.1124
 1931UDC     C221232   7.133  16.227   4.457  0.7228 -0.7395 -1.2075
 1931UDC     C321233   6.979  16.219   4.427 -0.5009  0.9582 -0.5175
 1931UDC     C421234   6.941  16.072   4.387  0.7827 -0.7842  1.0660
 1931UDC     C521235   6.787  16.056   4.375  0.2532  0.4444 -0.3606
 1931UDC     C621236   6.714  15.930   4.314 -0.1052 -0.2833 -0.2939
 1931UDC     C721237   6.690  15.804   4.399  0.4106 -0.3815 -0.0682
 1931UDC     C821238   6.621  15.696   4.319 -0.5196 -0.5222 -0.4360
 1931UDC     C921239   6.732  15.647   4.221  0.5531 -0.5086 -0.2404
 1931UDC    C1021240   6.686  15.536   4.123 -0.2964  0.3509  0.1260
 1931UDC    C1121241   6.798  15.486   4.025 -0.9469 -0.3868  0.3761
 1932UDC     C121242  11.763   1.459   3.619  0.3184 -0.0718  0.5359
 1932UDC     C221243  11.735   1.611   3.616  1.2294  0.2453  0.5429
 1932UDC     C321244  11.731   1.662   3.475  1.4283  0.2328  0.2434
 1932UDC     C421245  11.831   1.609   3.370  0.3405  0.5658 -0.3407
 1932UDC     C521246  11.921   1.730   3.329 -0.6497 -1.1569  0.0769
 1932UDC     C621247  11.823   1.838   3.292 -1.4577 -0.2103  0.7162
 1932UDC     C721248  11.872   1.980   3.325 -1.1574 -0.1108  0.9652
 1932UDC     C821249  12.007   2.042   3.294 -0.3675 -0.2295  0.2581
 1932UDC     C921250  11.995   2.083   3.145  0.6615 -0.2362  0.3401
 1932UDC    C1021251  11.888   2.193   3.113  0.0404 -0.5740 -0.7906
 1932UDC    C1121252  11.815   2.205   2.985 -0.7356 -0.0018  0.6108
 1933UDC     C121253  10.243  11.051   8.873  0.4287 -1.1686 -0.1228
 1933UDC     C221254  10.334  10.955   8.800 -0.7415  0.6411  0.6713
 1933UDC     C321255  10.330  10.814   8.856 -0.2034  0.4204  0.1477
 1933UDC     C421256  10.379  10.810   9.008 -0.4130 -0.1749 -0.5753
 1933UDC     C521257  10.486  10.705   9.031  0.8008  0.5275  0.0881
 1933UDC     C621258  10.553  10.688   9.173  0.5586  0.9860 -0.1429
 1933UDC     C721259  10.693  10.627   9.154  1.3623 -1.0894 -0.9703
 1933UDC     C821260  10.690  10.483   9.095 -0.5137 -0.0301 -0.0084
 1933UDC     C921261  10.824  10.418   9.045 -0.1520  0.6486  0.6050
 1933UDC    C1021262  10.789  10.327   8.923 -0.9479 -0.8387 -0.3231
 1933UDC    C1121263  10.808  10.172   8.941 -0.3165 -0.6119  0.1546
 1934UDC     C121264  15.873   3.624   1.578 -0.6334  0.0533  0.0196
 1934UDC     C221265  15.975   3.545   1.499 -0.5115 -0.7338  0.2531
 1934UDC     C321266  15.975   3.621   1.364 -0.9882  0.6828 -0.3480
 1934UDC     C421267  16.057   3.743   1.360  0.0451 -0.7667  0.9901
 1934UDC     C521268  16.035   3.832   1.227  0.2336  0.4545  0.4023
 1934UDC     C621269  16.074   3.980   1.236  1.1079  0.0091  0.0010
 1934UDC     C721270  16.071   4.034   1.091  0.5778  0.5854 -0.8505
 1934UDC     C821271  15.949   3.992   1.003 -1.3279  0.6567 -0.2180
 1934UDC     C921272  15.947   4.078   0.876 -0.7882  0.7281  1.2172
 1934UDC    C1021273  15.824   4.087   0.792 -0.2844 -0.5796 -0.1515
 1934UDC    C1121274  15.833   4.148   0.650 -1.7814 -0.9756  0.3217
 1935UDC     C121275  18.943   2.623   8.896  0.9854  1.1725  0.5709
 1935UDC     C221276  18.929   2.471   8.873  0.2140  0.2967  0.3319
 1935UDC     C321277  18.972   2.438   8.736 -1.7372  1.3123  0.4845
 1935UDC     C421278  19.125   2.406   8.738  0.3335 -0.2462  0.2699
 1935UDC     C521279  19.210   2.387   8.610 -0.4135 -0.9684  0.0855
 1935UDC     C621280  19.297   2.514   8.585 -0.0621 -0.2364 -0.5322
 1935UDC     C721281  19.382   2.515   8.460 -0.3125 -0.1436  0.7917
 1935UDC     C821282  19.520   2.451   8.487  0.6429 -0.8574  0.1142
 1935UDC     C921283  19.593   2.439   8.348  0.7733  0.7322 -0.3202
 1935UDC    C1021284  19.744   2.429   8.366 -0.8286  0.2323 -0.6183
 1935UDC    C1121285  19.808   2.528   8.467 -0.3202  0.2440 -0.1896
 1936UDC     C121286  16.471   0.980  12.113  0.4260 -0.1021 -0.3625
 1936UDC     C221287  16.458   1.044  12.252  0.5363  0.1273 -0.5199
 1936UDC     C321288  16.501   0.946  12.359  0.1786  0.4028  0.1688
 1936UDC     C421289  16.376   0.876  12.412  0.3804 -0.2863 -0.0076
 1936UDC     C521290  16.265   0.979  12.432 -0.6287 -0.4708  0.2889
 1936UDC     C621291  16.153   0.943  12.533 -0.1247  0.5186 -0.7843
 1936UDC     C721292  16.213   0.941  12.674 -0.1726 -0.0276  0.0369
 1936UDC     C821293  16.255   1.072  12.737  0.1437  0.1330 -0.5808
 1936UDC     C921294  16.264   1.080  12.895 -0.4826  0.8225  0.2826
 1936UDC    C1021295  16.218   1.214  12.948 -0.3434 -0.4355 -1.8673
 1936UDC    C1121296  16.264   1.328  12.860  0.7083 -1.2112  0.5825
 1937UDC     C121297   6.981  12.714  15.183 -0.0841 -0.9677  0.0054
 1937UDC     C221298   7.085  12.671  15.294  0.1453 -0.5316  1.3597
 1937UDC     C321299   7.050  12.559  15.391 -0.0042 -0.1948  0.0073
 1937UDC     C421300   6.913  12.550  15.453  0.0391 -1.2721 -0.1995
 1937UDC     C521301   6.897  12.443  15.559  0.4681  0.4736 -0.1783
 1937UDC     C621302   6.998  12.443  15.678  0.1036 -0.4555 -1.0465
 1937UDC     C721303   6.938  12.388  15.813  0.4157  0.5438 -0.3943
 1937UDC     C821304   7.017  12.300  15.912  0.9034 -0.0196  0.8505
 1937UDC     C921305   7.145  12.374  15.949  0.0491 -0.4332 -1.2911
 1937UDC    C1021306   7.212  12.277  16.049 -0.3449 -0.5522 -0.2485
 1937UDC    C1121307   7.332  12.343  16.119 -0.1554 -0.4675 -0.4133
 1938UDC     C121308   9.928   0.469  11.165  0.2907 -0.6989  0.6942
 1938UDC     C221309   9.885   0.504  11.311 -0.3213 -0.1031  0.7330
 1938UDC     C321310   9.981   0.601  11.376  0.3877  0.2804 -0.0325
 1938UDC     C421311  10.118   0.562  11.449 -0.4758  0.9729  0.4147
 1938UDC     C521312  10.173   0.671  11.535 -0.1701 -0.4793 -0.4547
 1938UDC     C621313  10.317   0.661  11.576  0.8106 -0.3482  0.5850
 1938UDC     C721314  10.408   0.647  11.451  0.8427  0.1527  0.2543
 1938UDC     C821315  10.404   0.770  11.360  0.1621  0.9888  0.2276
 1938UDC     C921316  10.515   0.881  11.381  0.1147  0.5955  0.8894
 1938UDC    C1021317  10.476   1.002  11.294 -1.1375  0.3161  0.6465
 1938UDC    C1121318  10.583   1.030  11.174  0.2194  0.7771 -0.3113
 1939UDC     C121319   7.990   9.647  12.913 -0.3698 -0.4481 -0.1517
 1939UDC     C221320   7.963   9.652  13.067 -0.4575 -0.2767 -0.1467
 1939UDC     C321321   8.005   9.772  13.148  0.1269  0.3485  0.1173
 1939UDC     C421322   7.944   9.799  13.286 -0.5228  0.6852 -0.3956
 1939UDC     C521323   7.994   9.923  13.357  0.1840 -0.5788  1.0886
 1939UDC     C621324   7.910   9.942  13.482  0.1296 -0.7493  0.3020
 1939UDC     C721325   7.773  10.012  13.444 -0.3980 -0.9660 -0.0009
 1939UDC     C821326   7.685  10.036  13.572 -0.3461 -0.7689  0.0113
 1939UDC     C921327   7.612   9.912  13.599  0.3971  0.1234 -0.1077
 1939UDC    C1021328   7.511   9.876  13.487 -0.0650 -0.6206 -0.8633
 1939UDC    C1121329   7.453   9.740  13.493 -0.8692  0.6385 -0.2838
 1940UDC     C121330   9.491  14.584   9.764  0.1095 -0.1065 -0.3099
 1940UDC     C221331   9.506  14.481   9.877  0.3512 -0.0632  0.3938
 1940UDC     C321332   9.405  14.361   9.863 -0.3821 -1.1448 -0.2521
 1940UDC     C421333   9.418  14.247   9.964 -0.0840 -1.1495  0.2916
 1940UDC     C521334   9.371  14.110   9.913 -0.9714 -0.1253  0.2239
 1940UDC     C621335   9.474  14.036   9.825  0.1648 -0.1805  0.0478
 1940UDC     C721336   9.425  13.922   9.739 -0.4826  0.2130  0.6355
 1940UDC     C821337   9.366  13.804   9.828 -0.9081 -1.2603 -0.0378
 1940UDC     C921338   9.443  13.776   9.961  0.0149 -0.8836  0.1591
 1940UDC    C1021339   9.364  13.684  10.056  0.8805 -0.3646  0.0703
 1940UDC    C1121340   9.398  13.686  10.201  0.7869  0.4025 -0.2578
 1941UDC     C121341  16.769   4.439  13.875 -0.2427  0.5142  0.5691
 1941UDC     C221342  16.632   4.497  13.825 -0.4364 -0.5888 -0.3252
 1941UDC     C321343  16.522   4.488  13.932 -0.0587 -0.7135  0.8162
 1941UDC     C421344  16.382   4.450  13.893  0.0231 -0.8019 -0.4473
 1941UDC     C521345  16.355   4.327  13.800  0.4670 -0.4128  0.8832
 1941UDC     C621346  16.217   4.263  13.818  0.6264 -0.6014  0.2779
 1941UDC     C721347  16.192   4.165  13.692  0.3058 -0.0717 -0.3246
 1941UDC     C821348  16.064   4.085  13.718 -1.0009  0.5324 -0.5058
 1941UDC     C921349  16.045   3.998  13.850  0.4120  0.7216 -0.5697
 1941UDC    C1021350  16.115   3.860  13.876 -0.2745 -0.4361 -0.1157
 1941UDC    C1121351  16.068   3.762  13.768  0.2919  0.7444 -0.3150
 1942UDC     C121352   7.145   4.794  11.364 -1.0208 -0.4298  1.1920
 1942UDC     C221353   7.303   4.823  11.357  0.4128 -0.4044  0.1667
 1942UDC     C321354   7.348   4.953  11.437  0.5279 -0.1545  0.9483
 1942UDC     C421355   7.329   5.090  11.368  0.1721 -0.6592  0.2448
 1942UDC     C521356   7.179   5.135  11.352  0.6745  0.5871 -0.2959
 1942UDC     C621357   7.139   5.243  11.458 -0.0789  1.5658  0.5859
 1942UDC     C721358   6.988   5.253  11.462 -1.1914  0.4889  0.1143
 1942UDC     C821359   6.910   5.312  11.341 -0.6249  0.0766  0.5583
 1942UDC     C921360   6.898   5.462  11.346  1.5700 -0.3649  0.5853
 1942UDC    C1021361   7.020   5.544  11.298 -0.6275  0.0894 -0.8318
 1942UDC    C1121362   7.038   5.692  11.348  0.0281 -0.6152  1.0560
 1943UDC     C121363  15.904   3.457   3.143  0.2611  0.3312 -0.2529
 1943UDC     C221364  15.823   3.331   3.093 -0.1336 -0.1358 -0.1806
 1943UDC     C321365  15.829   3.206   3.185  0.0384 -0.9345 -0.7468
 1943UDC     C421366  15.730   3.100   3.153  0.4571 -0.2018  0.0133
 1943UDC     C521367  15.652   3.036   3.264 -0.7939  1.3458 -0.3863
 1943UDC     C621368  15.511   3.093   3.276 -0.4161  0.7607  0.3703
 1943UDC     C721369  15.440   3.037   3.402 -0.6195 -1.1329 -0.6300
 1943UDC     C821370  15.326   3.122   3.450 -0.3318 -0.7054 -0.4080
 1943UDC     C921371  15.204   3.113   3.354  0.2204  0.4299 -0.6146
 1943UDC    C1021372  15.167   2.970   3.308 -0.3735  0.6963  0.4530
 1943UDC    C1121373  15.062   2.977   3.198  0.5693 -0.1809  0.1760
 1944UDC     C121374  16.565   0.186   6.338 -0.4089 -0.4789  0.7941
 1944UDC     C221375  16.588   0.063   6.426 -0.9557  0.0935  0.7527
 1944UDC     C321376  16.570   0.105   6.577  0.5708  0.1788  0.1309
 1944UDC     C421377  16.589  -0.010   6.674 -0.1105  0.6753  0.0821
 1944UDC     C521378  16.615   0.038   6.815  0.4196 -0.1762  0.5940
 1944UDC     C621379  16.684  -0.072   6.900 -1.2855  0.0267 -0.6958
 1944UDC     C721380  16.751  -0.035   7.034  1.0547 -1.3733 -0.5395
 1944UDC     C821381  16.731  -0.137   7.148 -0.5373  0.6051  0.3056
 1944UDC     C921382  16.826  -0.261   7.118  0.4318  0.1506  0.0401
 1944UDC    C1021383  16.821  -0.374   7.219 -1.6053  0.7915  0.4170
 1944UDC    C1121384  16.904  -0.350   7.347  0.0112 -1.2132  0.2632
 1945UDC     C121385  14.669   1.925   0.876  0.0508 -0.5648 -0.6501
 1945UDC     C221386  14.815   1.961   0.902 -0.5094 -0.0998 -0.5632
 1945UDC     C321387  14.887   2.018   0.782  0.1191 -0.0172  0.4590
 1945UDC     C421388  15.032   2.051   0.823  0.7178  0.4782  0.6173
 1945UDC     C521389  15.083   1.918   0.886  0.3467  0.9508 -0.0997
 1945UDC     C621390  15.230   1.921   0.910  0.7917  0.7855 -0.2473
 1945UDC     C721391  15.280   2.008   1.024  0.1086  0.4477  1.1727
 1945UDC     C821392  15.238   1.984   1.162  0.9878  0.3997 -0.4848
 1945UDC     C921393  15.169   2.106   1.229  0.6672 -0.2531  0.4738
 1945UDC    C1021394  15.255   2.221   1.264 -0.3053 -0.1743  0.5290
 1945UDC    C1121395  15.381   2.209   1.365  0.4973  0.6646  0.6526
 1946UDC     C121396  14.911  10.425  14.848 -0.3654  1.1078 -1.0682
 1946UDC     C221397  14.808  10.363  14.946 -1.1323  0.1195 -1.0155
 1946UDC     C321398  14.863  10.247  15.029 -0.3956  0.7501 -1.2224
 1946UDC     C421399  14.866  10.257  15.186 -0.1909 -0.2021  0.7497
 1946UDC     C521400  14.953  10.383  15.231 -1.0056  0.8329  0.4583
 1946UDC     C621401  14.910  10.416  15.373  0.6449 -0.3497 -0.1506
 1946UDC     C721402  14.937  10.559  15.413 -0.6854 -1.3131 -0.4524
 1946UDC     C821403  14.931  10.559  15.571 -0.4458 -1.2784 -0.9605
 1946UDC     C921404  14.841  10.686  15.617 -0.4759  0.6829  1.0583
 1946UDC    C1021405  14.797  10.695  15.762 -0.1862  0.0882  0.3361
 1946UDC    C1121406  14.724  10.823  15.801  0.5677  0.2103 -0.1501
 1947UDC     C121407  19.391  18.341  13.802 -0.1118  1.1938 -0.4503
 1947UDC     C221408  19.438  18.394  13.948  0.6899  0.2653  0.9051
 1947UDC     C321409  19.479  18.540  13.937 -1.2735  0.0773  0.8338
 1947UDC     C421410  19.564  18.609  14.044  1.5045 -0.0745 -0.6952
 1947UDC     C521411  19.503  18.628  14.188  0.1809 -0.6696 -0.2593
 1947UDC     C621412  19.599  18.656  14.307 -0.1647  0.3610  0.0674
 1947UDC     C721413  19.544  18.702  14.442 -0.2804  0.2902  1.2328
 1947UDC     C821414  19.652  18.730  14.550 -0.6501 -0.4502 -1.1340
 1947UDC     C921415  19.650  18.863  14.626 -0.6506  0.6213 -0.4110
 1947UDC    C1021416  19.515  18.920  14.688 -0.3548  0.1408  0.1983
 1947UDC    C1121417  19.549  19.048  14.765 -0.1788 -0.4043  0.2822
 1948UDC     C121418  11.419  11.434   0.464 -0.2894 -0.8434  0.3245
 1948UDC     C221419  11.558  11.429   0.536 -0.6825  0.9560 -0.4245
 1948UDC     C321420  11.552  11.481   0.679 -0.0593 -0.7584  0.0934
 1948UDC     C421421  11.674  11.488   0.772 -0.3853  0.3900  0.4450
 1948UDC     C521422  11.634  11.521   0.918 -0.2509 -0.0813  0.6947
 1948UDC     C621423  11.745  11.577   1.004 -0.6517 -0.1673 -0.4925
 1948UDC     C721424  11.848  11.476   1.055  0.0341  0.1641 -0.0379
 1948UDC     C821425  11.803  11.373   1.162 -0.4974  0.7433 -0.5007
 1948UDC     C921426  11.790  11.236   1.096 -0.2792 -0.5283 -0.0851
 1948UDC    C1021427  11.755  11.130   1.200 -0.1382  0.5282 -0.0662
 1948UDC    C1121428  11.885  11.126   1.286  0.1887  0.2350 -0.7243
 1949UDC     C121429   0.551   1.329   6.138 -0.3153  0.9970 -0.0367
 1949UDC     C221430   0.432   1.404   6.198  0.1220  0.4191 -0.4318
 1949UDC     C321431   0.463   1.486   6.322  0.7309  0.6236 -0.5992
 1949UDC     C421432   0.530   1.408   6.433 -0.7386 -0.6098 -0.5043
 1949UDC     C521433   0.583   1.502   6.547  0.5276  0.9336 -0.4721
 1949UDC     C621434   0.459   1.552   6.631 -0.0089 -0.3809  1.9577
 1949UDC     C721435   0.472   1.594   6.776 -0.0936 -0.0430 -1.4781
 1949UDC     C821436   0.468   1.481   6.874 -0.7980  0.8293  0.6205
 1949UDC     C921437   0.560   1.488   6.989 -0.0963 -0.1037 -0.0952
 1949UDC    C1021438   0.521   1.394   7.100  0.2106  0.2597  0.6960
 1949UDC    C1121439   0.547   1.252   7.054  0.1513  0.4531 -0.5633
 1950UDC     C121440  19.780   3.214   4.097  0.0073  0.9935 -0.2815
 1950UDC     C221441  19.653   3.254   4.024  0.0859 -0.1653  1.0941
 1950UDC     C321442  19.627   3.175   3.891  0.7511 -0.2960  0.5656
 1950UDC     C421443  19.610   3.026   3.901 -0.4155 -0.5271 -0.2064
 1950UDC     C521444  19.624   2.949   3.762  0.9897 -0.4087  0.3766
 1950UDC     C621445  19.724   2.832   3.763 -0.3037 -0.0014 -0.5823
 1950UDC     C721446  19.754   2.753   3.633  0.3376  0.8719 -0.7459
 1950UDC     C821447  19.879   2.663   3.618  1.1809 -0.2857 -0.7054
 1950UDC     C921448  20.022   2.713   3.651  1.2016  0.2069  0.7514
 1950UDC    C1021449  20.043   2.721   3.799  1.1102  0.1011 -0.3527
 1950UDC    C1121450  20.195   2.717   3.848  0.8676  0.0534  0.9844
 1951UDC     C121451   5.880   8.288   7.607 -0.0454 -0.8291  0.1016
 1951UDC     C221452   5.731   8.302   7.564 -0.3053  0.4531  0.8300
 1951UDC     C321453   5.644   8.398   7.654 -0.0170  0.0064 -0.4521
 1951UDC     C421454   5.536   8.314   7.716 -0.6512  0.6778 -0.0866
 1951UDC     C521455   5.445   8.391   7.806 -0.0249  0.3435 -0.5146
 1951UDC     C621456   5.311   8.425   7.746  0.3187  0.6626  0.7376
 1951UDC     C721457   5.231   8.308   7.679  0.7374 -0.5728 -0.4046
 1951UDC     C821458   5.157   8.335   7.551  0.2319 -0.1568  1.1307
 1951UDC     C921459   5.027   8.422   7.568 -0.3503  0.5043 -1.2650
 1951UDC    C1021460   4.955   8.438   7.435  0.0101 -0.0015 -0.3530
 1951UDC    C1121461   4.852   8.552   7.440 -0.3207  0.8368  0.0026
 1952UDC     C121462  11.897  10.365  18.426 -0.0186  0.4104 -0.0393
 1952UDC     C221463  12.032  10.337  18.493  0.7443 -0.5620 -0.5626
 1952UDC     C321464  12.030  10.287  18.635 -0.5227  0.3199  0.7078
 1952UDC     C421465  12.168  10.284  18.711  0.1151 -0.1561  1.3705
 1952UDC     C521466  12.244  10.154  18.676  0.0817 -0.0856 -0.4523
 1952UDC     C621467  12.173  10.033  18.737 -0.7832 -0.2080 -0.5608
 1952UDC     C721468  12.069   9.970  18.641 -0.2372 -0.0306 -0.0784
 1952UDC     C821469  12.021   9.828  18.676  1.2963 -0.3933  0.4093
 1952UDC     C921470  11.955   9.820  18.817 -0.1402 -0.0679  0.3937
 1952UDC    C1021471  11.890   9.679  18.834 -0.7030  0.7993 -0.1437
 1952UDC    C1121472  11.804   9.658  18.956  0.5214 -0.1977 -0.4921
 1953UDC     C121473   1.611  17.136   8.674 -0.0873  0.2860 -0.3962
 1953UDC     C221474   1.761  17.157   8.658 -0.1582  0.5284 -0.8640
 1953UDC     C321475   1.814  17.240   8.538  0.9424 -0.2785 -0.2784
 1953UDC     C421476   1.802  17.397   8.529  0.6808 -0.1700  0.1267
 1953UDC     C521477   1.886  17.492   8.442  0.1079 -0.8055  0.2632
 1953UDC     C621478   1.904  17.626   8.507 -0.1412 -0.5131 -0.3773
 1953UDC     C721479   2.005  17.638   8.625 -0.6124  0.9630 -1.1962
 1953UDC     C821480   2.146  17.675   8.569  0.9154 -0.6301  0.1531
 1953UDC     C921481   2.260  17.569   8.603  0.2603  0.0465 -0.2540
 1953UDC    C1021482   2.371  17.539   8.496  0.6934  1.5643  0.2404
 1953UDC    C1121483   2.498  17.462   8.542 -0.2131 -1.2590  0.5518
 1954UDC     C121484  12.674  10.945  17.330  0.8189  0.7967  1.0223
 1954UDC     C221485  12.769  10.822  17.308  0.4429  0.1284 -0.3732
 1954UDC     C321486  12.922  10.857  17.297 -0.1833  0.4855 -0.7313
 1954UDC     C421487  12.946  10.937  17.168  0.0633  0.3477 -0.6051
 1954UDC     C521488  13.100  10.963  17.131  0.4999  0.7548  0.8170
 1954UDC     C621489  13.185  10.830  17.104 -0.7632 -0.1506 -0.4354
 1954UDC     C721490  13.116  10.751  16.989 -0.0680  0.6505  0.0539
 1954UDC     C821491  13.188  10.615  16.973  0.4939  0.7413 -0.5795
 1954UDC     C921492  13.121  10.517  16.868  0.3067 -1.0195 -0.7416
 1954UDC    C1021493  13.222  10.403  16.845 -0.8162 -0.8877  1.0079
 1954UDC    C1121494  13.159  10.274  16.795  1.0011 -0.3477 -0.4075
 1955UDC     C121495  12.224   9.843   4.211  0.6522 -0.2531 -0.9559
 1955UDC     C221496  12.211   9.813   4.364 -0.2068  1.0064  0.5834
 1955UDC     C321497  12.295   9.699   4.405  0.1266  0.4216 -0.5536
 1955UDC     C421498  12.415   9.664   4.308 -1.2014  0.9373  0.2864
 1955UDC     C521499  12.473   9.524   4.321  0.5642  0.2464 -0.8179
 1955UDC     C621500  12.583   9.495   4.220  0.5387 -0.0733  0.0655
 1955UDC     C721501  12.635   9.620   4.140 -0.3121  0.0293  0.6473
 1955UDC     C821502  12.704   9.566   4.008  1.2424  0.5187 -0.6784
 1955UDC     C921503  12.740   9.662   3.898 -0.0335  0.0596 -0.3648
 1955UDC    C1021504  12.756   9.594   3.758 -0.0410  0.4294 -1.0536
 1955UDC    C1121505  12.822   9.687   3.660  0.8190  0.2654 -0.7939
 1956UDC     C121506   6.263   6.649  15.320  0.0811  0.4184 -0.0855
 1956UDC     C221507   6.162   6.579  15.412 -0.7715 -0.7030  0.9686
 1956UDC     C321508   6.224   6.491  15.512 -0.7535 -0.4871 -0.0291
 1956UDC     C421509   6.135   6.412  15.605  0.3580  0.9538  0.7963
 1956UDC     C521510   6.182   6.369  15.742 -0.1810 -0.1883 -0.4199
 1956UDC     C621511   6.093   6.275  15.820  0.5101 -0.9189  0.0511
 1956UDC     C721512   5.955   6.339  15.868 -0.6371 -0.2189 -0.5576
 1956UDC     C821513   6.004   6.454  15.961  0.3545 -0.4791 -0.5796
 1956UDC     C921514   6.069   6.407  16.092 -0.0924  0.0434  0.1596
 1956UDC    C1021515   6.043   6.527  16.191 -0.3463  0.3678 -0.9091
 1956UDC    C1121516   5.889   6.539  16.175 -0.3027 -1.0163  0.0453
 1957UDC     C121517  14.947   6.971   0.744 -0.1574  0.2515 -1.0237
 1957UDC     C221518  14.979   6.837   0.696 -0.6284  0.8405  0.0068
 1957UDC     C321519  15.045   6.851   0.554 -0.0851  0.5902 -0.6239
 1957UDC     C421520  15.108   6.722   0.506  0.4625  0.0769  1.0369
 1957UDC     C521521  14.994   6.617   0.498  1.1389 -0.4752  0.7104
 1957UDC     C621522  15.041   6.486   0.440 -0.5392  0.6993  0.4002
 1957UDC     C721523  15.123   6.504   0.309 -0.2812 -0.4908 -0.6742
 1957UDC     C821524  15.219   6.386   0.268  0.1061  0.1218  0.7278
 1957UDC     C921525  15.165   6.292   0.152  0.1591 -0.7480  0.1187
 1957UDC    C1021526  15.028   6.230   0.184 -0.2551  0.1619  0.5794
 1957UDC    C1121527  15.006   6.118   0.288  0.8038  0.2680 -0.7789
 1958UDC     C121528  13.584  17.634  16.565  0.3309  0.0785 -0.3736
 1958UDC     C221529  13.712  17.570  16.514  0.5335 -0.5941 -0.3961
 1958UDC     C321530  13.812  17.566  16.624 -0.0561  0.4381 -0.8561
 1958UDC     C421531  13.925  17.668  16.589  0.4601 -0.4608  0.1654
 1958UDC     C521532  14.011  17.708  16.713 -0.0578 -0.5563 -0.2044
 1958UDC     C621533  14.142  17.791  16.676 -0.1064 -0.6085 -0.0999
 1958UDC     C721534  14.212  17.844  16.808  1.2648 -0.6360 -0.0560
 1958UDC     C821535  14.343  17.927  16.781  0.5218  0.2617 -0.0885
 1958UDC     C921536  14.333  18.017  16.653 -0.9228  0.1259  0.4446
 1958UDC    C1021537  14.470  18.047  16.584  0.3776  0.2882 -0.2594
 1958UDC    C1121538  14.530  17.913  16.549  0.1024  1.0928 -0.3977
 1959UDC     C121539  11.859   9.972   6.027  0.1439 -0.7408  0.2552
 1959UDC     C221540  11.820  10.095   6.113 -0.0473  0.5385  0.1955
 1959UDC     C321541  11.677  10.088   6.170  0.5509 -0.0462  1.3787
 1959UDC     C421542  11.572  10.116   6.062  0.7350 -0.2919  0.2163
 1959UDC     C521543  11.554  10.258   6.006 -0.0860 -0.0569 -0.7217
 1959UDC     C621544  11.406  10.278   5.967 -0.6756  0.4677 -0.8431
 1959UDC     C721545  11.375  10.412   5.912  0.8577  0.3794  1.1014
 1959UDC     C821546  11.522  10.454   5.875  0.0404  0.2608 -0.4203
 1959UDC     C921547  11.550  10.594   5.820 -0.3295  0.4779  0.9890
 1959UDC    C1021548  11.683  10.638   5.761  0.3462 -0.2723  0.2963
 1959UDC    C1121549  11.678  10.763   5.676 -0.1959 -0.2697  0.9286
 1960UDC     C121550   5.742  14.336   7.968  1.8216 -0.0800  0.0312
 1960UDC     C221551   5.882  14.390   8.002  0.1805  0.9990  0.8896
 1960UDC     C321552   5.952  14.470   7.890 -0.2779 -0.3104  0.0289
 1960UDC     C421553   5.913  14.439   7.743  0.3915  0.8791  0.5421
 1960UDC     C521554   5.985  14.315   7.679  0.0904 -0.2241  0.1663
 1960UDC     C621555   6.107  14.351   7.610 -0.0174 -0.4468  0.8985
 1960UDC     C721556   6.155  14.259   7.500 -0.4827 -0.7859 -0.7090
 1960UDC     C821557   6.305  14.265   7.471  0.4905  0.0503  0.8279
 1960UDC     C921558   6.393  14.199   7.580 -0.1474  0.4132 -0.9092
 1960UDC    C1021559   6.544  14.223   7.584  0.7466  0.7642  0.6133
 1960UDC    C1121560   6.570  14.371   7.580 -0.1690 -0.0725  0.6683
 1961UDC     C121561   9.125   3.766  18.398  0.0141 -0.5522  0.6462
 1961UDC     C221562   9.181   3.643  18.475  0.4817 -1.4684  0.6645
 1961UDC     C321563   9.074   3.535  18.497  0.4159 -0.2542 -0.9444
 1961UDC     C421564   9.121   3.454  18.622  0.1082 -0.2645 -0.5024
 1961UDC     C521565   9.146   3.532  18.755 -0.4427 -0.4887 -0.0054
 1961UDC     C621566   9.265   3.498  18.847  0.4880  2.0386  0.8702
 1961UDC     C721567   9.403   3.550  18.820  0.0996 -0.1884  0.6464
 1961UDC     C821568   9.511   3.468  18.900  0.4052 -0.3654  1.2695
 1961UDC     C921569   9.482   3.480  19.046  0.0948  0.3192  0.4790
 1961UDC    C1021570   9.559   3.394  19.137 -0.4309 -0.4469 -1.0592
 1961UDC    C1121571   9.685   3.471  19.195  0.0167  0.4334  0.0155
 1962UDC     C121572   5.608   1.045   7.832 -0.0051  0.0599  0.0346
 1962UDC     C221573   5.620   1.039   7.680 -0.3960 -0.7750 -0.3170
 1962UDC     C321574   5.768   1.034   7.648  0.1016 -0.6735 -0.4639
 1962UDC     C421575   5.844   1.147   7.721  0.1076  0.3862  0.9743
 1962UDC     C521576   5.815   1.287   7.685 -0.3637  0.0373  1.1012
 1962UDC     C621577   5.851   1.358   7.558  0.8651 -0.9840 -0.1312
 1962UDC     C721578   5.992   1.422   7.572 -0.2713  0.6317  0.7227
 1962UDC     C821579   6.116   1.333   7.562  0.0389  0.7645  0.2822
 1962UDC     C921580   6.263   1.396   7.557  0.4002 -0.6403 -0.2668
 1962UDC    C1021581   6.263   1.496   7.447  0.4731  1.0931 -0.3713
 1962UDC    C1121582   6.297   1.633   7.495 -0.8770  0.2213  0.3647
 1963UDC     C121583  15.206  11.059   0.474 -0.0473 -0.9108 -0.4469
 1963UDC     C221584  15.113  11.087   0.361 -0.2599 -0.7177  0.8752
 1963UDC     C321585  14.961  11.095   0.406 -0.2595 -0.6815  0.1939
 1963UDC     C421586  14.971  11.209   0.512 -0.9594 -0.4268  0.8674
 1963UDC     C521587  14.842  11.229   0.593 -0.5470  1.2257 -0.4785
 1963UDC     C621588  14.821  11.348   0.687  0.1648 -1.0591  0.1366
 1963UDC     C721589  14.806  11.486   0.613 -0.4952 -0.0981  0.5235
 1963UDC     C821590  14.913  11.536   0.520  0.4360  0.2116  0.5773
 1963UDC     C921591  15.039  11.592   0.583  0.5054  0.9433  0.0174
 1963UDC    C1021592  15.030  11.622   0.736 -0.4887  0.7118 -0.1615
 1963UDC    C1121593  15.172  11.599   0.801 -0.0217 -0.4670  0.2023
 1964UDC     C121594  11.302   8.950  11.069  0.5905  1.3038 -0.2836
 1964UDC     C221595  11.206   9.067  11.091 -0.0693  0.1382 -0.2866
 1964UDC     C321596  11.158   9.130  10.955  0.1191  0.2626 -0.6739
 1964UDC     C421597  11.006   9.165  10.927  0.1245 -0.5893  0.6596
 1964UDC     C521598  10.991   9.285  10.827 -0.0301  0.2613 -0.7853
 1964UDC     C621599  11.067   9.258  10.700  0.0922  0.7278 -0.4280
 1964UDC     C721600  11.035   9.369  10.596  0.5709  0.1562 -0.2324
 1964UDC     C821601  10.886   9.402  10.584  0.2183  0.5360 -1.3952
 1964UDC     C921602  10.820   9.280  10.527  0.7765  0.6432  0.2968
 1964UDC    C1021603  10.683   9.237  10.597 -0.4289  0.2068 -0.5323
 1964UDC    C1121604  10.620   9.108  10.547  0.4784  0.8030 -0.0909
 1965UDC     C121605  13.715  11.633  13.135 -0.1738  0.0390  0.0362
 1965UDC     C221606  13.569  11.581  13.166 -0.4224 -0.4990 -0.7660
 1965UDC     C321607  13.553  11.511  13.031  0.6400 -0.4899 -0.2993
 1965UDC     C421608  13.655  11.404  13.007 -0.6380  0.2457  0.1397
 1965UDC     C521609  13.607  11.323  12.888  0.1460 -0.6331  0.7283
 1965UDC     C621610  13.600  11.387  12.741  0.7059  0.2073 -1.0291
 1965UDC     C721611  13.496  11.314  12.652 -0.5624  1.5079 -1.6011
 1965UDC     C821612  13.562  11.174  12.629 -0.4064  0.1506  0.8745
 1965UDC     C921613  13.468  11.049  12.624 -0.0158  0.8485 -0.5083
 1965UDC    C1021614  13.375  11.020  12.743 -1.3793 -0.0306  0.2469
 1965UDC    C1121615  13.231  11.018  12.698  0.0344 -1.1291  0.1877
 1966UDC     C121616  12.546   9.518   7.575  0.6409  0.4807  0.0922
 1966UDC     C221617  12.628   9.393   7.553 -0.6855  1.6175 -0.2870
 1966UDC     C321618  12.776   9.420   7.535 -0.0338 -0.1651 -0.2785
 1966UDC     C421619  12.884   9.339   7.457  0.9284 -0.2148 -0.6451
 1966UDC     C521620  12.935   9.200   7.500  0.1129 -0.2446  0.6644
 1966UDC     C621621  13.041   9.144   7.402  0.2655  0.1301 -1.3414
 1966UDC     C721622  13.002   9.083   7.272  0.6456 -0.4096 -1.0230
 1966UDC     C821623  13.072   9.121   7.142  0.3782  0.5413 -1.5811
 1966UDC     C921624  13.006   9.245   7.099  0.0863 -0.0447 -0.2353
 1966UDC    C1021625  13.027   9.262   6.939 -0.1923  0.4566 -0.3935
 1966UDC    C1121626  12.974   9.369   6.837 -0.1201  1.2634  0.0388
 1967UDC     C121627   5.035  12.378  16.423  0.3989 -0.4895  0.2423
 1967UDC     C221628   5.120  12.258  16.400  1.5106  0.0323  0.1767
 1967UDC     C321629   5.157  12.203  16.538 -1.0577 -0.2629 -0.3645
 1967UDC     C421630   5.205  12.057  16.549  1.0615  0.2063 -0.8755
 1967UDC     C521631   5.283  12.026  16.423  0.3325 -0.3012  0.5024
 1967UDC     C621632   5.413  12.113  16.402 -0.0547  0.5381  0.6356
 1967UDC     C721633   5.529  12.083  16.488  0.2516  1.4318  0.4491
 1967UDC     C821634   5.637  12.186  16.506  1.0321  0.0483  0.3128
 1967UDC     C921635   5.654  12.223  16.658 -0.7702  0.0621  0.5433
 1967UDC    C1021636   5.725  12.357  16.680 -0.3527 -0.8994  0.9023
 1967UDC    C1121637   5.625  12.473  16.648  0.1491  0.3645 -0.0724
 1968UDC     C121638   6.679   6.376  10.631 -0.0360 -0.9717 -0.4867
 1968UDC     C221639   6.694   6.384  10.479 -0.4197  0.2511 -0.3346
 1968UDC     C321640   6.587   6.310  10.396  1.4663  0.1733 -0.4386
 1968UDC     C421641   6.451   6.384  10.412  0.2501  0.3575  0.7223
 1968UDC     C521642   6.337   6.302  10.338 -0.3657 -0.5698 -0.4330
 1968UDC     C621643   6.210   6.381  10.297  0.0738 -0.7307 -0.2105
 1968UDC     C721644   6.086   6.291  10.308 -0.3117 -0.3944 -0.2702
 1968UDC     C821645   5.958   6.359  10.248 -0.9998  0.3826 -0.1535
 1968UDC     C921646   5.830   6.315  10.329  0.6516 -0.1294  0.8679
 1968UDC    C1021647   5.797   6.168  10.302 -0.6561 -0.7927 -0.2868
 1968UDC    C1121648   5.710   6.139  10.178  1.0040  0.1986  0.3499
 1969UDC     C121649   6.638  11.151  14.408  0.1779  0.3476  0.7731
 1969UDC     C221650   6.607  11.037  14.516 -0.8121  0.2372  0.3034
 1969UDC     C321651   6.719  10.935  14.520 -0.2504  0.0374 -0.0045
 1969UDC     C421652   6.697  10.818  14.620  0.9953  0.1246  0.1693
 1969UDC     C521653   6.663  10.891  14.759 -1.6023  0.5942  0.0514
 1969UDC     C621654   6.540  10.829  14.831  0.2508  0.3826  0.3491
 1969UDC     C721655   6.506  10.889  14.971 -0.0466 -1.0838 -0.0909
 1969UDC     C821656   6.382  10.822  15.026  0.3938 -0.1440 -0.3950
 1969UDC     C921657   6.303  10.931  15.105  0.0608  0.5438 -0.3960
 1969UDC    C1021658   6.187  10.874  15.184  1.6073  0.6083 -0.5555
 1969UDC    C1121659   6.074  10.816  15.091 -0.5663  0.3388 -0.4924
 1970UDC     C121660  14.427  18.977   9.264 -0.0136  0.6392  0.3837
 1970UDC     C221661  14.475  18.846   9.322 -0.5904  0.3315  0.5573
 1970UDC     C321662  14.587  18.772   9.233  0.5309  0.2405  0.8619
 1970UDC     C421663  14.658  18.668   9.318  0.3875 -0.6580  0.3152
 1970UDC     C521664  14.596  18.530   9.322  0.2956  1.0394  0.1915
 1970UDC     C621665  14.660  18.441   9.429  0.3049  0.8977  0.3018
 1970UDC     C721666  14.610  18.469   9.569 -0.5697  0.4253 -0.7509
 1970UDC     C821667  14.489  18.388   9.618  1.0158  0.9433 -0.7706
 1970UDC     C921668  14.512  18.241   9.686 -0.0638  0.4255 -0.7946
 1970UDC    C1021669  14.383  18.154   9.713 -0.5422 -0.2857  0.9967
 1970UDC    C1121670  14.425  18.053   9.811  0.5993  0.7671 -0.5738
 1971UDC     C121671  18.300   7.180  11.821  0.0231  0.7411 -0.5579
 1971UDC     C221672  18.274   7.298  11.912 -0.7623  0.1903  0.2023
 1971UDC     C321673  18.131   7.296  11.963 -0.9597 -0.2152  0.2956
 1971UDC     C421674  18.041   7.236  11.851  0.3000  0.0442 -0.1953
 1971UDC     C521675  17.908   7.182  11.914  0.1075  0.2617  0.2119
 1971UDC     C621676  17.869   7.059  11.831  0.9376 -0.3556  0.1671
 1971UDC     C721677  17.779   6.949  11.890  1.1205  0.9058  0.4239
 1971UDC     C821678  17.637   7.005  11.897  0.2364  0.1879  0.0630
 1971UDC     C921679  17.524   6.923  11.820  0.2197  1.1027 -1.2700
 1971UDC    C1021680  17.387   6.922  11.891 -0.5895  1.5753  0.2383
 1971UDC    C1121681  17.287   6.898  11.775  0.4082  0.7587 -0.0810
 1972UDC     C121682  18.126   2.939   2.292 -0.8007  0.5973 -0.2225
 1972UDC     C221683  18.193   2.869   2.178  0.5915 -0.0206  0.2687
 1972UDC     C321684  18.341   2.841   2.167 -0.0284 -0.7491  0.6718
 1972UDC     C421685  18.406   2.842   2.314  0.3613  0.4188  1.2287
 1972UDC     C521686  18.549   2.779   2.315  0.3866 -0.2416 -0.1145
 1972UDC     C621687  18.665   2.866   2.263 -0.0302 -0.9711 -0.4796
 1972UDC     C721688  18.782   2.770   2.221 -0.2104  1.0194 -0.6944
 1972UDC     C821689  18.901   2.837   2.150 -0.3422  0.4213  0.5989
 1972UDC     C921690  19.027   2.753   2.149 -0.5402  0.1232  1.4183
 1972UDC    C1021691  19.055   2.658   2.032 -0.6777  1.5669  0.1414
 1972UDC    C1121692  19.049   2.714   1.887 -0.9151 -0.5132 -0.4183
 1973UDC     C121693  11.836   6.295  16.953 -0.4333  1.2520 -0.0122
 1973UDC     C221694  11.783   6.194  16.849  0.2092 -0.2199  0.0979
 1973UDC     C321695  11.737   6.063  16.908  1.0474 -0.0028 -0.3036
 1973UDC     C421696  11.608   6.072  16.983  0.1795  0.3451 -0.0692
 1973UDC     C521697  11.554   5.929  16.987  0.3018 -1.1727  0.7697
 1973UDC     C621698  11.513   5.870  16.856 -0.0599  0.8370  0.3377
 1973UDC     C721699  11.404   5.956  16.792 -0.7860 -0.6221  0.3929
 1973UDC     C821700  11.341   5.874  16.687 -0.1425  0.1867  0.4131
 1973UDC     C921701  11.223   5.793  16.735 -0.7395  0.1826  0.0006
 1973UDC    C1021702  11.146   5.728  16.610 -0.6791 -0.2472 -0.3007
 1973UDC    C1121703  11.021   5.641  16.630  0.2143  0.3741 -1.4356
 1974UDC     C121704  16.978  14.298  15.017 -0.5719  0.8513 -0.4939
 1974UDC     C221705  17.114  14.225  14.981  0.1611  0.3180 -0.3302
 1974UDC     C321706  17.231  14.328  14.988 -0.7707 -0.6852 -0.8016
 1974UDC     C421707  17.372  14.264  14.988  0.4575  0.1031  0.1307
 1974UDC     C521708  17.483  14.341  14.903  0.9801 -0.0832 -0.0742
 1974UDC     C621709  17.439  14.444  14.794 -0.6818  0.9842 -0.7581
 1974UDC     C721710  17.547  14.443  14.686 -0.9272 -0.0954 -0.1344
 1974UDC     C821711  17.482  14.497  14.554 -0.7756  0.1770 -0.1681
 1974UDC     C921712  17.586  14.476  14.443 -0.6072 -0.8790  0.1484
 1974UDC    C1021713  17.681  14.604  14.430  0.4331  0.1496 -0.2749
 1974UDC    C1121714  17.821  14.571  14.374  0.4402  0.6350 -0.2099
 1975UDC     C121715  17.783   3.606  15.954  0.6450  0.5278  0.7865
 1975UDC     C221716  17.690   3.597  15.827 -0.1953  1.2445  0.3385
 1975UDC     C321717  17.683   3.476  15.733 -0.4218  0.1850 -0.0232
 1975UDC     C421718  17.632   3.356  15.819  0.8412 -1.2072  1.0950
 1975UDC     C521719  17.590   3.255  15.719  0.9065 -0.3490 -0.3694
 1975UDC     C621720  17.627   3.106  15.714 -0.6374 -0.0856 -0.4770
 1975UDC     C721721  17.600   3.062  15.863  0.0987  0.2514  0.4464
 1975UDC     C821722  17.629   2.914  15.897  1.0811 -0.2176 -0.4947
 1975UDC     C921723  17.510   2.815  15.878 -1.0668  0.4168 -1.0008
 1975UDC    C1021724  17.519   2.671  15.948  1.0913  1.8998  0.0756
 1975UDC    C1121725  17.555   2.668  16.096  0.4476 -0.5773 -0.4095
 1976UDC     C121726   9.454   7.716  15.167 -0.1523  1.3795  0.4233
 1976UDC     C221727   9.464   7.836  15.258  0.8163  0.4222  1.5656
 1976UDC     C321728   9.402   7.958  15.192  0.8692 -0.6190  0.8001
 1976UDC     C421729   9.473   8.010  15.064  0.1822 -0.9719 -0.7735
 1976UDC     C521730   9.391   7.969  14.944 -0.2584 -0.8681 -0.5229
 1976UDC     C621731   9.464   7.999  14.808 -0.1444  0.0373 -0.9945
 1976UDC     C721732   9.403   7.952  14.675 -1.0441 -0.2295 -0.4021
 1976UDC     C821733   9.304   8.034  14.592  0.9717  0.0172 -0.4841
 1976UDC     C921734   9.245   7.927  14.501 -0.4981 -1.1074 -0.7007
 1976UDC    C1021735   9.138   7.971  14.404 -0.1955  0.9348 -0.1000
 1976UDC    C1121736   9.066   7.868  14.312  0.1446  0.8013 -0.7708
 1977UDC     C121737   8.292  10.349   9.910  0.2378 -0.7729  0.5322
 1977UDC     C221738   8.412  10.439   9.950 -0.1821 -1.4626  0.4893
 1977UDC     C321739   8.503  10.452   9.818 -0.1700  0.9904  0.4893
 1977UDC     C421740   8.645  10.502   9.858 -0.0058  0.0654  0.2631
 1977UDC     C521741   8.736  10.421   9.960 -0.3973 -0.3530  0.3539
 1977UDC     C621742   8.774  10.272   9.949 -0.2202  0.7737  0.3061
 1977UDC     C721743   8.808  10.229   9.801  0.5173 -0.5601 -0.4464
 1977UDC     C821744   8.735  10.099   9.767  0.4654 -0.3023 -0.0437
 1977UDC     C921745   8.779   9.970   9.846  0.4261 -0.4990 -0.4135
 1977UDC    C1021746   8.921   9.908   9.837 -0.4480 -0.6276 -0.4780
 1977UDC    C1121747   8.976   9.879   9.980 -0.1964 -0.5599 -0.8889
 1978UDC     C121748  11.347  18.092  18.043  0.6945  0.6690 -0.0591
 1978UDC     C221749  11.442  18.069  18.164  0.3567  0.0725 -0.9132
 1978UDC     C321750  11.561  17.973  18.144 -0.0524 -0.8725  0.6674
 1978UDC     C421751  11.663  17.966  18.258 -0.0748 -0.4079  0.6397
 1978UDC     C521752  11.795  17.905  18.202 -0.6357 -0.5888  0.0440
 1978UDC     C621753  11.902  17.925  18.315  0.8910  0.8501 -0.2389
 1978UDC     C721754  11.880  17.869  18.458  0.5479 -0.7421  0.7475
 1978UDC     C821755  11.976  17.899  18.570  0.3053 -1.1642  0.2096
 1978UDC     C921756  11.920  17.863  18.711  0.0367 -0.7177  0.5313
 1978UDC    C1021757  12.046  17.844  18.804  0.1866  0.6486 -0.2958
 1978UDC    C1121758  12.136  17.967  18.847 -0.4186 -0.6763  0.5775
 1979UDC     C121759   9.085   8.130   0.478 -0.4714  0.2212 -0.6973
 1979UDC     C221760   9.151   7.996   0.539 -0.2439 -0.2812  0.2776
 1979UDC     C321761   9.055   7.944   0.647 -0.7501  0.9543  0.3077
 1979UDC     C421762   9.074   8.022   0.779  0.6270  0.3822  0.1245
 1979UDC     C521763   8.978   7.980   0.889  0.4603  0.1155 -0.4664
 1979UDC     C621764   8.993   7.839   0.954 -0.7456  0.1324  1.0625
 1979UDC     C721765   8.894   7.823   1.065  0.5757  0.2889 -0.5540
 1979UDC     C821766   8.915   7.917   1.179  0.2683  0.2933  0.6796
 1979UDC     C921767   8.816   7.913   1.292 -0.4003  0.8276 -0.7761
 1979UDC    C1021768   8.814   8.032   1.380 -0.2607  0.3898 -1.3334
 1979UDC    C1121769   8.929   8.132   1.389 -0.1228 -0.0640  0.4541
 1980UDC     C121770   0.751   2.350  18.059 -0.1717  0.3138  1.8896
 1980UDC     C221771   0.834   2.305  18.180  0.2663  0.2198 -0.1427
 1980UDC     C321772   0.976   2.266  18.168 -0.1682 -0.6875 -0.4179
 1980UDC     C421773   1.011   2.185  18.300  1.0742 -0.3666  0.9154
 1980UDC     C521774   0.974   2.242  18.434 -1.0497 -0.2165 -0.4452
 1980UDC     C621775   1.044   2.209  18.570 -0.8097  0.1986  0.4611
 1980UDC     C721776   0.993   2.283  18.696 -0.4938  0.0751  0.5346
 1980UDC     C821777   0.844   2.231  18.713  0.3030 -1.1529 -0.1438
 1980UDC     C921778   0.771   2.262  18.844 -0.4692  0.5512  0.1389
 1980UDC    C1021779   0.623   2.246  18.843  0.7604 -0.0649 -0.7844
 1980UDC    C1121780   0.558   2.229  18.982  0.3664 -0.4856 -0.1305
 1981UDC     C121781   9.486  14.192  14.870  0.1810 -0.2978  0.0620
 1981UDC     C221782   9.547  14.198  15.012  0.5729 -0.1247  0.5021
 1981UDC     C321783   9.429  14.170  15.106  0.0959 -0.1924  0.6037
 1981UDC     C421784   9.463  14.203  15.256  0.7597  0.0671  0.8483
 1981UDC     C521785   9.598  14.143  15.310 -0.0307 -0.8348  0.4479
 1981UDC     C621786   9.606  14.137  15.460 -0.4371 -0.3355 -1.0496
 1981UDC     C721787   9.588  14.279  15.522 -0.2607  0.2519  0.2672
 1981UDC     C821788   9.589  14.289  15.675 -0.0809 -0.7461 -0.2762
 1981UDC     C921789   9.567  14.425  15.730 -0.1245 -0.5040  0.1897
 1981UDC    C1021790   9.434  14.487  15.668  0.9450  1.1903 -0.4719
 1981UDC    C1121791   9.406  14.640  15.670 -0.6611 -0.5916  0.8061
 1982UDC     C121792  19.080  16.466   1.781  1.3255 -0.8511  0.8111
 1982UDC     C221793  19.042  16.491   1.931 -0.7628 -0.6815 -0.0010
 1982UDC     C321794  18.904  16.444   1.981 -0.2689 -0.0433 -0.2015
 1982UDC     C421795  18.783  16.483   1.899  0.7890  0.0591 -0.6025
 1982UDC     C521796  18.643  16.445   1.966 -0.7643 -0.3574  1.0589
 1982UDC     C621797  18.513  16.442   1.879 -0.8485  0.5924 -0.4789
 1982UDC     C721798  18.393  16.461   1.965  0.6363 -0.8602 -0.6203
 1982UDC     C821799  18.277  16.423   1.871  0.2884 -0.6460 -0.3410
 1982UDC     C921800  18.144  16.499   1.885 -0.2000 -0.6751 -0.2521
 1982UDC    C1021801  18.027  16.409   1.898  0.6626  0.7206 -0.4342
 1982UDC    C1121802  18.023  16.309   2.008  0.8513  0.1462  0.8833
 1983UDC     C121803   1.702   4.986  18.113 -0.4063  0.0322 -0.1849
 1983UDC     C221804   1.647   5.077  18.226 -0.2760  0.3776  0.5283
 1983UDC     C321805   1.532   5.159  18.160  0.2039  1.3320 -0.4946
 1983UDC     C421806   1.439   5.249  18.249 -0.4480  0.3234  0.2161
 1983UDC     C521807   1.312   5.306  18.187 -0.0145 -0.5255 -0.0451
 1983UDC     C621808   1.193   5.220  18.225  0.5008 -0.1557 -0.7569
 1983UDC     C721809   1.212   5.070  18.266 -1.2774  0.5566  0.3291
 1983UDC     C821810   1.154   4.966  18.165 -0.0220 -1.3944 -0.5410
 1983UDC     C921811   1.108   4.843  18.243 -0.1036 -0.8155  0.8440
 1983UDC    C1021812   1.220   4.784  18.331 -0.5250 -0.5268  0.4955
 1983UDC    C1121813   1.345   4.747  18.244 -0.3198  0.7354  0.0352
 1984UDC     C121814   9.669   6.372   3.816  0.9772 -0.4406  0.2727
 1984UDC     C221815   9.741   6.444   3.702 -0.8689  0.0427  0.3433
 1984UDC     C321816   9.896   6.433   3.719 -0.5957 -0.3607 -0.2551
 1984UDC     C421817   9.925   6.279   3.734 -0.8732  1.2262 -1.0191
 1984UDC     C521818   9.944   6.182   3.615  0.9831  1.0745  0.0775
 1984UDC     C621819   9.833   6.116   3.524  0.4382  0.4556 -0.1364
 1984UDC     C721820   9.877   6.037   3.403 -0.1754  0.1834  0.0844
 1984UDC     C821821   9.925   5.895   3.435 -0.7977 -0.0557  0.5182
 1984UDC     C921822   9.992   5.834   3.305 -0.0386 -0.7232 -0.3948
 1984UDC    C1021823   9.876   5.807   3.209  0.0780 -0.4348 -0.3354
 1984UDC    C1121824   9.916   5.705   3.104  0.2037  0.6116  0.0988
 1985UDC     C121825   1.751   0.139   2.906  0.5818 -1.0907  0.0755
 1985UDC     C221826   1.736   0.065   2.773  0.9913 -0.3494  0.9924
 1985UDC     C321827   1.652   0.159   2.684 -0.6123  0.7291 -0.6959
 1985UDC     C421828   1.507   0.148   2.718  1.0543  0.4207  0.3100
 1985UDC     C521829   1.447   0.014   2.666  0.2741  0.2677  0.1662
 1985UDC     C621830   1.404   0.005   2.518  0.0315 -0.8119 -0.2473
 1985UDC     C721831   1.342  -0.127   2.467 -0.0651  0.2941  0.2171
 1985UDC     C821832   1.356  -0.157   2.321 -0.8147  0.0417 -0.8401
 1985UDC     C921833   1.308  -0.025   2.259 -0.5057  0.8689  0.1850
 1985UDC    C1021834   1.159  -0.001   2.254  0.2280 -0.0557  0.4805
 1985UDC    C1121835   1.131   0.120   2.166  1.0114 -1.0265 -0.4208
 1986UDC     C121836  17.049   8.227   3.846  0.0198  0.5721  1.1058
 1986UDC     C221837  16.908   8.250   3.897  0.7111  0.6973 -0.1716
 1986UDC     C321838  16.791   8.238   3.799 -0.6742  0.9392 -0.0762
 1986UDC     C421839  16.785   8.096   3.739  0.2248  0.3944 -0.4803
 1986UDC     C521840  16.669   8.071   3.640 -0.1498 -0.8754 -0.3341
 1986UDC     C621841  16.689   8.143   3.508 -0.5361 -0.1103  0.2791
 1986UDC     C721842  16.591   8.136   3.393 -0.2560 -0.4234  1.5920
 1986UDC     C821843  16.640   8.190   3.256 -0.4754  0.6553 -0.1808
 1986UDC     C921844  16.533   8.241   3.159  0.0519 -1.4450 -0.6762
 1986UDC    C1021845  16.594   8.273   3.019  0.5388  0.4347  0.1130
 1986UDC    C1121846  16.696   8.386   3.015  0.3033 -0.1087 -0.4384
 1987UDC     C121847  16.632  18.583  15.975 -0.4869  0.4114 -0.0815
 1987UDC     C221848  16.595  18.715  15.906 -1.1350  0.1851 -1.4529
 1987UDC     C321849  16.681  18.833  15.950 -0.3799 -0.3380  0.9717
 1987UDC     C421850  16.669  18.954  15.857  1.5029 -0.1698 -0.3733
 1987UDC     C521851  16.737  19.075  15.906 -0.2426  0.5486  0.1734
 1987UDC     C621852  16.738  19.210  15.834  0.1571 -0.8695 -0.1478
 1987UDC     C721853  16.647  19.228  15.709  0.4642 -0.5162 -1.0600
 1987UDC     C821854  16.670  19.365  15.649 -0.4612 -0.6784 -0.3813
 1987UDC     C921855  16.597  19.481  15.722 -0.8823 -0.5465 -0.0204
 1987UDC    C1021856  16.451  19.491  15.687 -0.3060 -0.5729  0.6647
 1987UDC    C1121857  16.364  19.404  15.776  0.2167 -0.5080 -0.0242
 1988UDC     C121858  13.119  12.896  15.318  0.1233  0.0104  0.9616
 1988UDC     C221859  13.092  13.048  15.349  0.2091 -0.1362  1.7449
 1988UDC     C321860  13.227  13.119  15.358  0.0842 -0.9343  0.1963
 1988UDC     C421861  13.222  13.269  15.361 -0.3463  0.6422  0.7201
 1988UDC     C521862  13.229  13.347  15.222 -0.3688 -0.2295 -0.0309
 1988UDC     C621863  13.250  13.497  15.222 -0.9184  0.4685 -0.9132
 1988UDC     C721864  13.272  13.545  15.077 -0.5976  0.0730  0.3497
 1988UDC     C821865  13.195  13.452  14.978 -0.6478  0.2888  0.2301
 1988UDC     C921866  13.219  13.493  14.827  0.2578 -1.2244 -0.5877
 1988UDC    C1021867  13.143  13.410  14.728  0.1393  0.4199 -0.4722
 1988UDC    C1121868  13.180  13.441  14.582  1.0147  0.5782 -0.6882
 1989UDC     C121869  11.296  13.076   5.980 -0.6004  0.5117  1.7587
 1989UDC     C221870  11.332  12.974   5.863 -0.5429 -0.7886  0.3545
 1989UDC     C321871  11.277  12.835   5.891 -0.4704  0.7307  0.1263
 1989UDC     C421872  11.332  12.776   6.023 -1.1813  0.3333  0.0649
 1989UDC     C521873  11.251  12.650   6.070 -0.0651 -1.0825 -0.1109
 1989UDC     C621874  11.116  12.653   6.143 -0.8901  0.3062  0.3417
 1989UDC     C721875  11.072  12.530   6.222 -0.0853  0.3677  1.0371
 1989UDC     C821876  11.141  12.505   6.360  1.3233  1.2212  0.7115
 1989UDC     C921877  11.278  12.441   6.358  0.7222 -0.6380 -0.7793
 1989UDC    C1021878  11.316  12.390   6.499 -0.6803  0.6764  0.7805
 1989UDC    C1121879  11.440  12.291   6.500 -0.8902  0.0614  1.3226
 1990UDC     C121880  11.044   9.038  13.166 -0.2080  0.4361  0.2787
 1990UDC     C221881  11.035   8.882  13.188  0.8287  0.4496  0.2107
 1990UDC     C321882  10.926   8.808  13.101  0.6272 -0.7610  0.2083
 1990UDC     C421883  10.985   8.744  12.981 -1.0485 -0.0021  0.8588
 1990UDC     C521884  10.909   8.627  12.918  0.5106 -0.3053  0.0317
 1990UDC     C621885  10.961   8.576  12.782  0.3645 -0.7987  0.7047
 1990UDC     C721886  10.883   8.469  12.708  0.6018  0.9072  0.4566
 1990UDC     C821887  10.974   8.408  12.599  0.7438  0.2155 -0.0666
 1990UDC     C921888  10.951   8.252  12.578 -0.1181 -0.8025 -0.3455
 1990UDC    C1021889  10.836   8.217  12.495 -0.2969 -0.8034  0.9582
 1990UDC    C1121890  10.769   8.080  12.522  0.7480 -0.0250 -0.2812
 1991UDC     C121891   2.504  14.917   7.912 -0.5732  0.0616  0.6108
 1991UDC     C221892   2.579  14.971   7.785  0.1074  0.1078 -0.9023
 1991UDC     C321893   2.483  15.066   7.715 -0.2119  0.2799  0.0735
 1991UDC     C421894   2.403  15.004   7.593 -0.5700  0.5639 -0.9368
 1991UDC     C521895   2.293  15.092   7.531  0.8196  0.6690 -0.3418
 1991UDC     C621896   2.197  15.030   7.433 -0.3935  0.3275 -0.0564
 1991UDC     C721897   2.167  15.093   7.293 -0.4261 -0.5873  0.1554
 1991UDC     C821898   2.024  15.092   7.234 -0.5273  0.8326 -0.0424
 1991UDC     C921899   1.949  15.208   7.293  0.2896 -0.1404  0.6631
 1991UDC    C1021900   1.805  15.247   7.252  0.7233 -1.0651 -0.9323
 1991UDC    C1121901   1.720  15.142   7.316 -1.2091  0.6906  0.2365
 1992UDC     C121902   5.203   8.316  15.201  0.3405 -0.3391 -0.3742
 1992UDC     C221903   5.292   8.221  15.130 -0.3502 -1.1703  0.0543
 1992UDC     C321904   5.239   8.160  15.002 -0.0865 -1.7461 -0.0724
 1992UDC     C421905   5.317   8.048  14.934  0.4880  0.6921 -0.0685
 1992UDC     C521906   5.337   8.072  14.779 -0.7087 -0.3497  0.2499
 1992UDC     C621907   5.201   8.058  14.714  0.1394 -0.1865  0.1634
 1992UDC     C721908   5.207   8.009  14.561 -0.0673 -0.7556  0.7511
 1992UDC     C821909   5.135   8.097  14.463  0.5738  0.2466  0.3760
 1992UDC     C921910   4.986   8.096  14.457  0.3902  0.8495  0.4790
 1992UDC    C1021911   4.922   8.166  14.329 -0.1553 -1.2996 -0.2548
 1992UDC    C1121912   4.906   8.084  14.196  0.0982  0.1052  0.4818
 1993UDC     C121913   2.432  13.681   4.152 -0.0275 -0.1191  0.0663
 1993UDC     C221914   2.302  13.704   4.231  0.7110 -0.2061 -0.3557
 1993UDC     C321915   2.314  13.718   4.388  0.1564 -0.6602  0.4074
 1993UDC     C421916   2.385  13.835   4.460  0.3052 -0.5490  0.0323
 1993UDC     C521917   2.338  13.846   4.607  0.0746  1.0128 -0.1831
 1993UDC     C621918   2.422  13.748   4.692  0.8256  0.4792  1.4940
 1993UDC     C721919   2.369  13.607   4.719 -0.0013 -0.4014 -0.1160
 1993UDC     C821920   2.468  13.529   4.810 -0.4805  0.2710 -1.0646
 1993UDC     C921921   2.614  13.548   4.780 -0.3170 -0.4481  0.3663
 1993UDC    C1021922   2.699  13.498   4.903 -0.2633 -0.1612  0.8765
 1993UDC    C1121923   2.766  13.599   5.006 -0.3401  0.7501 -0.1820
 1994UDC     C121924   1.166   6.570  17.183  0.1755 -0.1283  1.1885
 1994UDC     C221925   1.071   6.689  17.154  0.0642  0.2441  0.2375
 1994UDC     C321926   0.997   6.685  17.018 -0.0002  1.1185 -0.7283
 1994UDC     C421927   0.848   6.735  17.026 -1.4169 -1.0502  1.4942
 1994UDC     C521928   0.775   6.687  17.144 -0.2502 -0.6735 -1.5130
 1994UDC     C621929   0.621   6.687  17.150  0.2095 -0.5354  0.5566
 1994UDC     C721930   0.564   6.672  17.295 -0.7952  0.9407  0.2884
 1994UDC     C821931   0.603   6.546  17.375 -0.4036  0.2898 -0.7104
 1994UDC     C921932   0.563   6.550  17.526 -0.3791  0.1923  0.7192
 1994UDC    C1021933   0.424   6.595  17.559 -0.0585  1.1034 -0.3053
 1994UDC    C1121934   0.317   6.494  17.540  0.9522  1.0562  1.5944
 1995UDC     C121935   6.003   5.680   7.059 -0.1130 -0.0237 -0.0911
 1995UDC     C221936   5.896   5.579   7.053  0.5309  0.5322 -0.4261
 1995UDC     C321937   5.922   5.466   7.157 -0.1746  0.3130  0.5837
 1995UDC     C421938   5.819   5.359   7.166  1.0593  0.8973 -0.1484
 1995UDC     C521939   5.822   5.269   7.292 -0.1705 -0.3946  1.0291
 1995UDC     C621940   5.940   5.164   7.306  0.2924  0.0229 -0.2043
 1995UDC     C721941   5.956   5.086   7.441  0.3348 -0.5312 -0.0038
 1995UDC     C821942   6.033   4.947   7.434  1.7623 -0.2429  0.8627
 1995UDC     C921943   5.984   4.864   7.312 -0.7982  0.4460  0.0726
 1995UDC    C1021944   6.055   4.725   7.318 -0.4719 -0.2002  0.2118
 1995UDC    C1121945   6.210   4.723   7.293  0.0620  0.9717 -0.6075
 1996UDC     C121946   0.640   0.674   5.782  0.6857  0.6551  0.7626
 1996UDC     C221947   0.563   0.686   5.911  0.5110  0.3908  0.1577
 1996UDC     C321948   0.643   0.630   6.033 -0.0680 -0.6302  0.4808
 1996UDC     C421949   0.790   0.649   6.045 -0.2139 -1.3963  0.1003
 1996UDC     C521950   0.853   0.626   6.179 -0.4945 -0.1726 -0.7777
 1996UDC     C621951   1.003   0.607   6.205  0.8264  0.0057 -0.2152
 1996UDC     C721952   1.041   0.585   6.351 -0.2280 -1.1787 -0.0008
 1996UDC     C821953   1.190   0.589   6.372 -0.2559  0.7556 -0.9408
 1996UDC     C921954   1.253   0.592   6.515 -0.5235 -0.0288 -0.1743
 1996UDC    C1021955   1.249   0.457   6.588  0.6002 -0.5738  0.3161
 1996UDC    C1121956   1.305   0.431   6.729 -0.0966  0.5459 -0.2373
 1997UDC     C121957  16.009   6.409  17.182 -0.1826 -0.3495  0.7165
 1997UDC     C221958  16.108   6.367  17.061 -0.1963  0.0010 -0.0991
 1997UDC     C321959  16.060   6.310  16.927 -1.0787  0.3593 -0.4431
 1997UDC     C421960  15.988   6.383  16.813 -0.5323  0.1672 -0.2534
 1997UDC     C521961  15.920   6.294  16.698 -0.1800 -0.0225 -0.2011
 1997UDC     C621962  15.955   6.146  16.711 -0.5770 -0.6925  0.5602
 1997UDC     C721963  15.969   6.072  16.576  1.9358 -0.5488 -0.7516
 1997UDC     C821964  16.063   6.134  16.477 -0.0092 -0.2230  0.1187
 1997UDC     C921965  16.202   6.079  16.472  0.5032  0.1579  0.0335
 1997UDC    C1021966  16.323   6.178  16.454  1.5429 -0.2938  0.9304
 1997UDC    C1121967  16.336   6.284  16.571 -0.9287 -0.4768 -0.4491
 1998UDC     C121968  14.035   2.483  19.851 -0.3358 -0.1318  0.1236
 1998UDC     C221969  14.013   2.405  19.717  0.9618 -0.8666 -0.3752
 1998UDC     C321970  13.957   2.265  19.717 -0.4981 -0.2324 -0.3781
 1998UDC     C421971  13.967   2.181  19.590 -0.9976  0.3562 -0.6144
 1998UDC     C521972  13.876   2.211  19.475 -0.4051 -0.7509  0.4563
 1998UDC     C621973  13.860   2.107  19.369  0.0277 -0.5700  0.8041
 1998UDC     C721974  13.759   2.162  19.256 -0.8570 -0.3626  0.2077
 1998UDC     C821975  13.739   2.062  19.144  0.3633 -0.1843 -0.1741
 1998UDC     C921976  13.596   2.078  19.087 -0.2686 -0.2315  0.4539
 1998UDC    C1021977  13.489   1.980  19.147 -0.3442  0.6110  0.4487
 1998UDC    C1121978  13.363   1.982  19.060  0.4030 -0.1638 -0.0310
 1999UDC     C121979  12.111  15.162  12.391  0.5023 -0.4221  0.0386
 1999UDC     C221980  12.078  15.039  12.483 -0.5051 -0.6694  0.5300
 1999UDC     C321981  12.147  14.917  12.428 -0.4338 -0.5446 -0.3259
 1999UDC     C421982  12.062  14.821  12.355 -0.7716  1.0488 -0.5220
 1999UDC     C521983  11.991  14.715  12.441  0.2377 -0.2632  0.4966
 1999UDC     C621984  11.898  14.619  12.365 -0.4578  0.5886  0.6684
 1999UDC     C721985  11.975  14.533  12.264 -0.6232 -0.7633  1.1492
 1999UDC     C821986  11.880  14.452  12.167 -0.4869 -0.7890 -0.8539
 1999UDC     C921987  11.944  14.395  12.039  0.9716  1.5139  0.2566
 1999UDC    C1021988  11.993  14.244  12.043 -0.5051 -0.1136  0.2383
 1999UDC    C1121989  11.879  14.142  12.040 -0.0005  0.0408  0.2081
 2000UDC     C121990   8.272  12.294   2.622  0.0393 -0.0500 -0.2563
 2000UDC     C221991   8.424  12.302   2.623 -0.4990 -0.2406 -0.2697
 2000UDC     C321992   8.471  12.371   2.754 -0.5670  0.2398  0.5670
 2000UDC     C421993   8.474  12.276   2.874  0.5442  0.5729  0.0163
 2000UDC     C521994   8.603  12.266   2.951  0.2369  1.2638 -0.4658
 2000UDC     C621995   8.622  12.150   3.055  0.2837 -0.1876  0.4705
 2000UDC     C721996   8.566  12.187   3.195  1.2127 -0.3045  1.1024
 2000UDC     C821997   8.623  12.101   3.301 -0.1493  0.6521  0.0880
 2000UDC     C921998   8.763  12.150   3.359  0.3066 -0.2540  1.0726
 2000UDC    C1021999   8.750  12.302   3.392  0.5206  0.8667 -0.5214
 2000UDC    C1122000   8.863  12.359   3.475  0.5291 -0.6821 -0.0995
 2001UDC     C122001  10.499   2.346  14.373  0.5635  0.7304 -0.2137
 2001UDC     C222002  10.453   2.214  14.435  0.2778  0.6087  0.6385
 2001UDC     C322003  10.457   2.086  14.359 -0.2293  0.4677  0.6482
 2001UDC     C422004  10.394   1.963  14.425  0.1397 -0.5549  1.3494
 2001UDC     C522005  10.420   1.850  14.330  0.5666 -0.3999  0.3208
 2001UDC     C622006  10.568   1.842  14.305 -0.7756 -0.1568 -0.2182
 2001UDC     C722007  10.619   1.748  14.190 -0.3682  0.2837  0.8725
 2001UDC     C822008  10.743   1.790  14.108 -0.3786  0.4564  0.5639
 2001UDC     C922009  10.730   1.932  14.059 -0.0815 -1.0744  0.5322
 2001UDC    C1022010  10.871   1.988  14.057 -0.2873 -0.0017  0.5831
 2001UDC    C1122011  10.892   2.131  13.990  0.1594 -0.1093 -0.6444
 2002UDC     C122012   6.480   7.102  12.353  0.4505 -0.0233  0.6285
 2002UDC     C222013   6.336   7.116  12.409  0.2584  0.3369  0.1133
 2002UDC     C322014   6.227   7.074  12.313  0.6838 -1.2013  1.0667
 2002UDC     C422015   6.080   7.127  12.362 -0.7969  1.0817 -0.7923
 2002UDC     C522016   5.949   7.092  12.298 -0.0683 -0.1744 -0.0311
 2002UDC     C622017   5.840   7.196  12.338 -0.4043  0.9142 -1.1692
 2002UDC     C722018   5.864   7.344  12.299  0.6843  1.3984 -0.4888
 2002UDC     C822019   5.727   7.417  12.325 -0.3132 -0.4751  0.3413
 2002UDC     C922020   5.700   7.551  12.264  1.0818 -0.1003 -0.2626
 2002UDC    C1022021   5.561   7.588  12.320  0.4728  0.4444 -1.1473
 2002UDC    C1122022   5.464   7.468  12.313 -0.7067 -0.3467  0.4303
 2003UDC     C122023   1.360   4.276   5.755 -0.1620  0.4698 -0.4026
 2003UDC     C222024   1.276   4.358   5.658 -0.5252  0.0434  0.0284
 2003UDC     C322025   1.130   4.298   5.651 -0.4734 -1.4339  0.4404
 2003UDC     C422026   1.055   4.237   5.773 -1.6199  0.7256  0.1404
 2003UDC     C522027   0.976   4.108   5.753 -1.2046 -0.1724  0.4356
 2003UDC     C622028   0.965   4.043   5.890  0.2270  1.1086 -0.0449
 2003UDC     C722029   0.960   3.888   5.877 -0.8813  0.0056  0.3497
 2003UDC     C822030   0.831   3.839   5.810  0.7073  0.6628  0.6699
 2003UDC     C922031   0.842   3.694   5.770 -0.0594  1.0573 -1.0822
 2003UDC    C1022032   0.761   3.600   5.854  0.2138 -0.2105 -1.2875
 2003UDC    C1122033   0.795   3.465   5.799 -1.2183  0.6195  0.1776
 2004UDC     C122034  11.909   5.788   9.986  0.4097  0.6257 -0.4051
 2004UDC     C222035  11.856   5.641   9.961  0.0812  0.1718  0.4264
 2004UDC     C322036  11.938   5.574   9.854 -0.0762  0.4835  0.2846
 2004UDC     C422037  12.085   5.531   9.870  0.1737 -0.2301  0.7650
 2004UDC     C522038  12.092   5.398   9.949 -0.4920 -0.1607  0.9127
 2004UDC     C622039  12.239   5.362   9.991 -0.5326  1.0502  0.1463
 2004UDC     C722040  12.319   5.484  10.028 -0.2072 -0.4114  1.1226
 2004UDC     C822041  12.463   5.448  10.093  0.5422  1.0932  0.8263
 2004UDC     C922042  12.577   5.431   9.989 -0.3784  0.9532  0.6277
 2004UDC    C1022043  12.559   5.521   9.863  0.0141 -0.4552 -0.9712
 2004UDC    C1122044  12.555   5.432   9.734  0.4785  1.2803  0.4353
 2005UDC     C122045  11.483   6.168  18.303  0.4937 -0.8127 -0.5525
 2005UDC     C222046  11.602   6.151  18.402  0.2729 -0.2578  0.9872
 2005UDC     C322047  11.678   6.019  18.359  0.2935 -0.7564 -1.1401
 2005UDC     C422048  11.834   6.012  18.390  0.5677 -0.7378 -0.2712
 2005UDC     C522049  11.936   6.111  18.327  1.5989 -1.0930  0.0763
 2005UDC     C622050  12.055   6.029  18.280 -0.0072 -0.6501 -0.2244
 2005UDC     C722051  12.107   5.961  18.402 -0.0423  0.4120  0.2496
 2005UDC     C822052  12.264   5.937  18.403 -0.5356  0.2568 -0.2938
 2005UDC     C922053  12.332   5.926  18.542  0.2247  0.3260  0.6650
 2005UDC    C1022054  12.335   5.785  18.601  0.9517 -0.0748  0.9565
 2005UDC    C1122055  12.443   5.771  18.707 -0.2099 -0.6922  0.3736
 2006UDC     C122056  19.951   8.647  15.482  0.7622 -0.5369 -0.1845
 2006UDC     C222057  19.841   8.632  15.375  0.5176 -0.3846 -1.1193
 2006UDC     C322058  19.851   8.715  15.244  0.5625  0.5190  0.5093
 2006UDC     C422059  19.978   8.672  15.164  0.4530  0.0651 -0.9296
 2006UDC     C522060  20.010   8.525  15.146  0.9045 -0.7992  0.8693
 2006UDC     C622061  20.149   8.509  15.091 -0.3052  0.7242 -0.0016
 2006UDC     C722062  20.157   8.384  14.997  0.2404  0.0056 -0.5404
 2006UDC     C822063  20.137   8.242  15.058 -0.6116 -0.9753  0.4597
 2006UDC     C922064  20.246   8.191  15.152  0.0661  0.3661 -0.9082
 2006UDC    C1022065  20.212   8.122  15.285  0.9026  0.3830 -0.5398
 2006UDC    C1122066  20.327   8.039  15.338 -1.1261  0.2992 -0.0019
 2007UDC     C122067  11.751  14.600  18.727 -0.2234  0.3610  0.9617
 2007UDC     C222068  11.609  14.557  18.754  0.6622  0.0904 -0.5216
 2007UDC     C322069  11.525  14.503  18.636 -0.2931 -0.7583  0.9699
 2007UDC     C422070  11.451  14.613  18.560  0.7155  0.2331  0.5496
 2007UDC     C522071  11.389  14.565  18.418  0.0269  0.2400 -0.1654
 2007UDC     C622072  11.505  14.597  18.327 -0.6096 -0.7261 -0.1329
 2007UDC     C722073  11.500  14.537  18.186 -0.3504 -0.7547  0.9605
 2007UDC     C822074  11.409  14.606  18.081  0.0877  0.3378  0.4202
 2007UDC     C922075  11.395  14.521  17.956  0.3960 -0.2874  0.2794
 2007UDC    C1022076  11.531  14.508  17.882  0.6693  0.5944  0.4710
 2007UDC    C1122077  11.504  14.438  17.746  0.0207  1.4720 -0.0138
 2008UDC     C122078  15.443  10.522  10.769  0.4113  0.2946 -1.0204
 2008UDC     C222079  15.459  10.464  10.627  0.5512  0.7455  0.2631
 2008UDC     C322080  15.335  10.399  10.568 -0.2723 -0.4348  1.3411
 2008UDC     C422081  15.348  10.328  10.430 -0.8617  0.1151  0.9823
 2008UDC     C522082  15.403  10.420  10.317  0.4135 -0.6754 -0.6728
 2008UDC     C622083  15.463  10.360  10.190  0.0473 -0.1840  0.4959
 2008UDC     C722084  15.450  10.431  10.054  0.4743 -0.0621  0.9323
 2008UDC     C822085  15.509  10.348   9.937  0.9086  1.0593 -0.7660
 2008UDC     C922086  15.454  10.420   9.816  0.1014 -0.0087  0.9694
 2008UDC    C1022087  15.309  10.395   9.794 -0.0991 -0.3378  0.4467
 2008UDC    C1122088  15.262  10.251   9.778 -0.3805 -0.0732 -0.8776
 2009UDC     C122089  10.428   5.208   8.721 -0.2440  0.3179  0.1818
 2009UDC     C222090  10.480   5.106   8.823 -0.4377 -0.1719  0.1913
 2009UDC     C322091  10.394   4.982   8.829  0.1935  1.0723  0.0046
 2009UDC     C422092  10.461   4.869   8.736  0.1731  0.0712 -1.1850
 2009UDC     C522093  10.475   4.889   8.582  0.5969  0.2111 -0.1090
 2009UDC     C622094  10.532   4.787   8.477  0.3346  0.1924  0.6426
 2009UDC     C722095  10.434   4.671   8.466  0.3405  0.5786 -0.9935
 2009UDC     C822096  10.412   4.567   8.368  0.4387  0.8658  1.0184
 2009UDC     C922097  10.420   4.631   8.229  0.5117 -0.4131  0.7785
 2009UDC    C1022098  10.330   4.566   8.117  0.1039  0.5722 -0.0203
 2009UDC    C1122099  10.339   4.641   7.982 -0.4875 -1.0197 -0.6508
 2010UDC     C122100  15.986   3.755  18.720  0.8095 -0.8403 -1.0715
 2010UDC     C222101  16.089   3.741  18.609  1.2845  0.4425 -1.3179
 2010UDC     C322102  16.125   3.876  18.546 -0.5690 -0.2972 -0.2843
 2010UDC     C422103  16.198   3.973  18.649  0.5272  0.5344  0.9619
 2010UDC     C522104  16.280   4.073  18.556  2.4137  0.1646 -0.9894
 2010UDC     C622105  16.311   4.202  18.632 -0.7246  0.0117 -0.5396
 2010UDC     C722106  16.196   4.292  18.692  1.6210  0.4091  0.2277
 2010UDC     C822107  16.235   4.431  18.745  0.0250  0.1320  0.0178
 2010UDC     C922108  16.260   4.432  18.894 -0.2822 -1.0270 -0.0811
 2010UDC    C1022109  16.398   4.402  18.938 -0.5599  0.0487 -0.3551
 2010UDC    C1122110  16.501   4.515  18.970 -0.2020 -1.3333  0.6673
 2011UDC     C122111  15.499  19.916   2.947  0.1937  0.4252  1.2311
 2011UDC     C222112  15.653  19.896   2.931  0.8070  0.2464 -0.3028
 2011UDC     C322113  15.726  19.857   3.059  0.8881 -0.6525 -0.1430
 2011UDC     C422114  15.868  19.905   3.093  0.1688 -0.4393 -0.3982
 2011UDC     C522115  15.980  19.807   3.050 -0.3167  0.8330 -0.6707
 2011UDC     C622116  16.029  19.823   2.904  0.8901  0.0114 -0.0818
 2011UDC     C722117  16.101  19.704   2.847  0.1827 -0.3226  0.2031
 2011UDC     C822118  16.230  19.659   2.914  0.6968  0.0103  0.1752
 2011UDC     C922119  16.293  19.549   2.827 -0.0853 -0.2903 -0.3833
 2011UDC    C1022120  16.235  19.403   2.820  0.0468  0.0919 -0.0103
 2011UDC    C1122121  16.317  19.302   2.734 -0.6644  0.2512 -0.5553
 2012UDC     C122122  10.908  15.113  19.907  0.9479 -0.3441 -0.3231
 2012UDC     C222123  10.922  15.259  19.971 -0.1728 -0.6255  0.2623
 2012UDC     C322124  11.071  15.315  19.958  0.3142  0.1008  0.0130
 2012UDC     C422125  11.071  15.438  19.868  0.8670  0.2968  1.2037
 2012UDC     C522126  11.051  15.408  19.720 -0.0191  0.4312 -0.0050
 2012UDC     C622127  10.999  15.533  19.637  1.1693 -0.5467  0.7857
 2012UDC     C722128  10.886  15.605  19.703  1.1037  0.4231 -0.5535
 2012UDC     C822129  10.872  15.725  19.612  0.2591 -0.3363 -0.8169
 2012UDC     C922130  10.876  15.721  19.457  0.6866 -0.6266 -0.3083
 2012UDC    C1022131  10.913  15.842  19.373  0.3173  0.7132  0.2841
 2012UDC    C1122132  10.904  15.835  19.222 -0.7898  0.2064  0.5027
 2013UDC     C122133  15.616  13.232  12.157  0.0680  0.0369  0.4991
 2013UDC     C222134  15.742  13.308  12.117 -0.6809  0.0798  0.5116
 2013UDC     C322135  15.803  13.257  11.985 -0.7617 -1.0420  0.1575
 2013UDC     C422136  15.792  13.104  11.981 -0.1213  1.4353  0.1150
 2013UDC     C522137  15.934  13.046  11.984 -0.4171  0.3820 -0.1974
 2013UDC     C622138  16.029  13.109  11.876  0.9140 -1.0692  0.1155
 2013UDC     C722139  15.970  13.099  11.727  0.0713  0.3284 -0.5325
 2013UDC     C822140  16.049  13.185  11.619  0.9797  0.3588 -0.8343
 2013UDC     C922141  16.040  13.333  11.655 -0.8045 -0.1578 -0.2749
 2013UDC    C1022142  15.895  13.392  11.653  0.1475 -0.6095  0.6700
 2013UDC    C1122143  15.889  13.546  11.681 -0.1547  0.2459  0.4818
 2014UDC     C122144   5.314  19.815   7.552 -0.0279 -0.0982 -0.9455
 2014UDC     C222145   5.307  19.968   7.518  0.5015 -0.7479 -0.9302
 2014UDC     C322146   5.426  19.972   7.418  0.0038  1.0172 -0.2480
 2014UDC     C422147   5.433  20.076   7.306  0.6752  0.1896  0.8475
 2014UDC     C522148   5.578  20.068   7.267  0.7225 -0.7230  0.9184
 2014UDC     C622149   5.603  20.072   7.112  0.4827 -0.4080  0.3848
 2014UDC     C722150   5.741  20.043   7.044 -0.1547 -0.7686  0.5504
 2014UDC     C822151   5.782  19.895   7.092  0.3889 -0.9932 -0.4010
 2014UDC     C922152   5.904  19.911   7.182 -0.3481 -0.1269  0.0012
 2014UDC    C1022153   5.956  19.771   7.218 -0.5742  0.0267 -1.1913
 2014UDC    C1122154   6.098  19.747   7.277 -0.3203  0.5343 -0.8653
 2015UDC     C122155  18.160   4.290  11.850 -1.7510 -0.2654 -0.5373
 2015UDC     C222156  18.221   4.147  11.865 -1.2527  0.3900 -0.6853
 2015UDC     C322157  18.109   4.047  11.848 -0.6018 -0.2152 -0.3185
 2015UDC     C422158  18.167   3.905  11.818 -0.5388 -0.6800  0.8670
 2015UDC     C522159  18.179   3.855  11.677  0.3877  0.2202  0.4606
 2015UDC     C622160  18.122   3.940  11.563  0.2740 -0.3821 -0.1182
 2015UDC     C722161  17.970   3.911  11.516  0.7988  0.3375  0.3304
 2015UDC     C822162  17.894   4.045  11.481  0.0620  1.0172  0.3349
 2015UDC     C922163  17.741   4.039  11.467 -0.1452  0.0243 -0.5346
 2015UDC    C1022164  17.680   4.019  11.604  0.2435  0.2618 -0.4758
 2015UDC    C1122165  17.526   4.021  11.610  0.4895  0.1579  0.6970
 2016UDC     C122166   9.389   6.000  16.338 -1.1220 -0.7759 -0.2281
 2016UDC     C222167   9.382   5.890  16.438 -0.1523 -0.2881  0.9878
 2016UDC     C322168   9.526   5.841  16.469 -0.7795 -0.1115 -0.2041
 2016UDC     C422169   9.520   5.759  16.602 -0.1030 -0.1762  1.8693
 2016UDC     C522170   9.381   5.700  16.603  0.1948  0.7289 -0.6247
 2016UDC     C622171   9.351   5.631  16.738 -0.9058 -0.9283  0.5617
 2016UDC     C722172   9.225   5.548  16.718 -0.8045  0.5482  0.0491
 2016UDC     C822173   9.193   5.496  16.858 -0.1990 -0.5947 -0.5300
 2016UDC     C922174   9.043   5.459  16.888 -0.0262  0.2435 -0.2877
 2016UDC    C1022175   9.015   5.363  17.004 -0.1312  0.3197 -1.0345
 2016UDC    C1122176   8.874   5.291  16.993 -0.7017  0.1468 -0.3092
 2017UDC     C122177  12.662  11.405  17.936  0.1023  0.0579 -1.1091
 2017UDC     C222178  12.650  11.552  17.885 -0.5552  0.3239  1.1851
 2017UDC     C322179  12.755  11.655  17.933  0.7455 -0.3509 -0.9073
 2017UDC     C422180  12.912  11.640  17.900  0.2074 -0.1613 -0.5273
 2017UDC     C522181  12.990  11.758  17.936  0.0234 -0.2330 -0.4021
 2017UDC     C622182  12.936  11.884  17.858 -1.1901 -0.0716 -0.6676
 2017UDC     C722183  12.961  12.021  17.920  0.3617  1.2567 -0.6105
 2017UDC     C822184  12.897  12.146  17.861  0.5835 -0.1234 -0.2397
 2017UDC     C922185  12.963  12.194  17.730  0.3217  0.6565 -1.5673
 2017UDC    C1022186  12.906  12.316  17.656  0.5350  0.4672  0.8746
 2017UDC    C1122187  12.751  12.292  17.661 -0.5024 -0.6268  0.0928
 2018UDC     C122188   2.569   9.617  17.774 -1.0806 -0.9266  0.7860
 2018UDC     C222189   2.661   9.515  17.839 -0.1045  0.3839 -0.2776
 2018UDC     C322190   2.592   9.376  17.842  0.6895  0.8131  0.4058
 2018UDC     C422191   2.453   9.388  17.912  0.4019 -0.0172 -0.5306
 2018UDC     C522192   2.389   9.260  17.962  0.6977 -0.0628  0.1099
 2018UDC     C622193   2.258   9.276  18.037 -0.4229 -0.7923 -0.1918
 2018UDC     C722194   2.214   9.135  18.079  1.2922 -0.4430  0.4408
 2018UDC     C822195   2.170   9.035  17.972  0.4770 -0.1074 -0.4343
 2018UDC     C922196   2.084   9.104  17.864  0.3884 -1.2992 -0.1436
 2018UDC    C1022197   1.970   9.011  17.818 -0.8117  0.2232 -0.6937
 2018UDC    C1122198   1.868   9.074  17.727  0.3996  0.0056  1.0775
 2019UDC     C122199   5.918   7.381   5.075  0.3529  0.7949  0.2239
 2019UDC     C222200   5.956   7.479   4.969  0.9161 -0.6312  0.4363
 2019UDC     C322201   5.836   7.549   4.893  0.2831  1.5225  0.2673
 2019UDC     C422202   5.724   7.601   4.985  0.3839 -0.2537  0.1477
 2019UDC     C522203   5.747   7.744   5.036 -0.6502 -0.6710 -0.2836
 2019UDC     C622204   5.755   7.855   4.937  0.4657  0.7065  0.4191
 2019UDC     C722205   5.802   7.986   4.975  0.2440 -0.7864 -0.0308
 2019UDC     C822206   5.799   8.077   4.846 -0.1712  1.1194  0.4138
 2019UDC     C922207   5.767   8.224   4.884 -0.4254 -0.9112 -0.2660
 2019UDC    C1022208   5.838   8.330   4.796  0.2589  0.3351  0.1444
 2019UDC    C1122209   5.841   8.456   4.884  0.7696 -0.1105 -0.2923
 2020UDC     C122210   5.999   9.590   7.808 -0.2237 -1.0747  0.2060
 2020UDC     C222211   6.020   9.457   7.877  1.0020 -0.3520 -0.3896
 2020UDC     C322212   6.073   9.486   8.019 -0.5061 -0.4378  0.8105
 2020UDC     C422213   6.224   9.552   8.029  1.1058 -0.3988 -0.1925
 2020UDC     C522214   6.276   9.560   8.173 -0.3709  1.5287 -0.2755
 2020UDC     C622215   6.430   9.540   8.170  0.5402 -0.2186  0.5423
 2020UDC     C722216   6.502   9.670   8.165  0.5944 -0.8627  0.2525
 2020UDC     C822217   6.655   9.649   8.136 -0.3751  1.0794 -0.7426
 2020UDC     C922218   6.745   9.765   8.166  0.0724 -0.4360  0.5933
 2020UDC    C1022219   6.893   9.732   8.119  0.4336 -0.6664 -1.0159
 2020UDC    C1122220   6.976   9.855   8.158 -0.2671 -0.4675 -0.8582
 2021UDC     C122221   0.187   8.902   2.187 -1.2117 -0.3682  0.6922
 2021UDC     C222222   0.302   8.925   2.289 -0.7622  0.7696  0.4271
 2021UDC     C322223   0.316   8.811   2.385  0.4005  0.2104 -0.5222
 2021UDC     C422224   0.343   8.668   2.326  1.3965  0.0527 -0.3694
 2021UDC     C522225   0.479   8.619   2.263  0.2312 -1.2695 -0.3062
 2021UDC     C622226   0.479   8.481   2.211  0.2222 -0.4671 -0.2504
 2021UDC     C722227   0.611   8.433   2.146 -0.8721  0.6749 -0.2217
 2021UDC     C822228   0.604   8.295   2.074 -0.1876  0.4444  0.0354
 2021UDC     C922229   0.603   8.169   2.157  0.0001 -0.4815  0.0656
 2021UDC    C1022230   0.594   8.027   2.102 -1.0511 -0.5043  1.2008
 2021UDC    C1122231   0.661   7.916   2.193 -0.9091  0.2364 -0.0038
 2022UDC     C122232  14.152  17.707  15.267 -0.0450  0.7298 -0.3618
 2022UDC     C222233  14.300  17.648  15.275  1.1598  0.2349 -0.0130
 2022UDC     C322234  14.295  17.497  15.328 -1.1107 -0.3014  0.5448
 2022UDC     C422235  14.341  17.471  15.472  0.7114 -0.1916 -0.6460
 2022UDC     C522236  14.261  17.532  15.589  0.1672  0.0786  0.6922
 2022UDC     C622237  14.272  17.441  15.710  0.5501  0.8925 -0.2183
 2022UDC     C722238  14.169  17.335  15.702  0.2450 -0.2377  0.8713
 2022UDC     C822239  14.206  17.239  15.820 -0.7527  0.8894  0.6431
 2022UDC     C922240  14.131  17.107  15.811  0.4053  0.5882  0.7819
 2022UDC    C1022241  14.212  16.982  15.841  0.7079 -1.0525 -0.3488
 2022UDC    C1122242  14.117  16.855  15.839  0.1659  0.1996 -0.8685
 2023UDC     C122243  15.092  11.158  10.796  0.3653  0.4337 -0.2723
 2023UDC     C222244  15.069  11.014  10.837 -0.0271 -0.8261 -1.1846
 2023UDC     C322245  15.171  10.926  10.764  0.2090 -0.1809 -0.1630
 2023UDC     C422246  15.135  10.933  10.615 -0.3764  0.1613 -0.1411
 2023UDC     C522247  15.211  10.846  10.513  0.5704  0.0249  0.6425
 2023UDC     C622248  15.197  10.873  10.361 -0.9538 -0.0906  0.3896
 2023UDC     C722249  15.052  10.877  10.315  0.1549  0.9008 -0.4856
 2023UDC     C822250  15.050  10.839  10.169  0.2782 -0.0650 -0.2999
 2023UDC     C922251  15.108  10.960  10.096  0.4863  0.4553 -0.3956
 2023UDC    C1022252  14.993  11.067  10.095 -0.6497 -0.9066  1.0324
 2023UDC    C1122253  14.915  11.032   9.971 -0.1707  0.3623 -1.0192
 2024UDC     C122254   1.479  14.945  10.152 -0.2302  1.1888  0.7807
 2024UDC     C222255   1.390  14.814  10.142 -0.5809  0.4463 -0.1154
 2024UDC     C322256   1.439  14.698  10.234 -0.6140 -0.3789 -0.9488
 2024UDC     C422257   1.495  14.719  10.374  0.4702  0.1063  0.3783
 2024UDC     C522258   1.595  14.622  10.446 -0.3974  0.3414  0.0455
 2024UDC     C622259   1.629  14.622  10.589  0.2849  1.2978  0.4007
 2024UDC     C722260   1.602  14.491  10.673 -0.2924 -0.1460  0.1284
 2024UDC     C822261   1.499  14.530  10.784  0.6802  0.5351  0.6663
 2024UDC     C922262   1.567  14.633  10.876  0.7734  0.3204 -0.3183
 2024UDC    C1022263   1.524  14.650  11.020  0.7241  0.3181  0.6411
 2024UDC    C1122264   1.580  14.769  11.101 -0.6009 -0.1051  0.5327
 2025UDC     C122265  18.718   0.474  19.705 -0.0226  0.8159  0.2210
 2025UDC     C222266  18.735   0.369  19.821 -0.5849  1.4825  0.8890
 2025UDC     C322267  18.609   0.337  19.899  0.1153 -0.1759 -0.1047
 2025UDC     C422268  18.607   0.229  20.002 -0.1536 -0.1017 -0.4234
 2025UDC     C522269  18.472   0.174  20.015  0.4976  0.1536 -0.4956
 2025UDC     C622270  18.457   0.061  19.915  0.3720 -0.4210  0.5723
 2025UDC     C722271  18.311   0.034  19.877 -0.5173 -0.2247  1.0484
 2025UDC     C822272  18.234   0.141  19.790 -0.4057 -0.3451 -1.1852
 2025UDC     C922273  18.285   0.128  19.649  0.3548  0.6529 -0.1348
 2025UDC    C1022274  18.234   0.243  19.562  0.1049 -0.0022 -0.3458
 2025UDC    C1122275  18.302   0.263  19.431 -1.0630 -0.2265  1.3610
 2026UDC     C122276  15.635   8.338   8.847 -1.9940  0.2427  0.2660
 2026UDC     C222277  15.499   8.359   8.798 -0.0111  0.3993  1.0813
 2026UDC     C322278  15.430   8.495   8.842 -0.3872  1.1362 -0.1320
 2026UDC     C422279  15.484   8.604   8.747 -0.1490 -0.4732 -0.2405
 2026UDC     C522280  15.406   8.622   8.619  0.8917  0.7960  0.7662
 2026UDC     C622281  15.488   8.667   8.496 -0.1212 -0.0921 -0.1916
 2026UDC     C722282  15.392   8.658   8.375  1.0212  0.0243  0.2548
 2026UDC     C822283  15.296   8.780   8.362 -0.2133 -0.0690 -0.2102
 2026UDC     C922284  15.201   8.802   8.238  0.0477  0.4587 -0.4125
 2026UDC    C1022285  15.149   8.944   8.201  0.7987 -0.1008 -0.3199
 2026UDC    C1122286  15.072   8.955   8.070  0.0750  0.4908  0.2262
 2027UDC     C122287  14.617   3.586   8.656 -0.5446  0.6869  0.4604
 2027UDC     C222288  14.684   3.688   8.564  0.0163  0.5499  0.6775
 2027UDC     C322289  14.609   3.814   8.588  0.0749  1.0142  0.3923
 2027UDC     C422290  14.661   3.943   8.518  0.5547  0.4285  0.5747
 2027UDC     C522291  14.565   4.064   8.520  0.2988 -1.5955  1.3854
 2027UDC     C622292  14.605   4.172   8.415  0.4431  0.0825 -0.1620
 2027UDC     C722293  14.487   4.210   8.320 -0.8574  0.2584 -1.8388
 2027UDC     C822294  14.474   4.101   8.211 -0.5877  1.2604 -0.1356
 2027UDC     C922295  14.395   4.144   8.085  0.1523  0.4453  1.4600
 2027UDC    C1022296  14.253   4.197   8.106 -0.0455  0.2137 -0.2754
 2027UDC    C1122297  14.166   4.106   8.195  0.7833 -0.1211  0.0643
 2028UDC     C122298  19.913   6.641   9.758 -0.3201 -1.1759  0.1147
 2028UDC     C222299  19.911   6.751   9.868 -0.8420  0.5195 -0.5005
 2028UDC     C322300  19.950   6.886   9.810 -0.8465 -0.0027 -0.2791
 2028UDC     C422301  19.855   6.939   9.704  0.0843 -0.4118  0.0651
 2028UDC     C522302  19.874   7.072   9.617  0.5101  0.4677  0.2451
 2028UDC     C622303  19.763   7.103   9.520  0.8728  1.3222  0.0085
 2028UDC     C722304  19.777   7.041   9.377  0.7234 -0.5153  0.6762
 2028UDC     C822305  19.649   7.032   9.292  0.7014 -0.0526 -0.9688
 2028UDC     C922306  19.678   7.046   9.147  0.5381 -0.0759  0.1505
 2028UDC    C1022307  19.586   6.953   9.065 -1.3119  0.7870  0.1102
 2028UDC    C1122308  19.642   6.804   9.068  0.0790  0.6769 -0.0754
 2029UDC     C122309   5.891  12.335   1.396 -0.9866  0.0370  0.7031
 2029UDC     C222310   5.797  12.448   1.428  0.4079  0.2271 -0.8203
 2029UDC     C322311   5.866  12.587   1.408 -0.4109 -0.2425 -0.3029
 2029UDC     C422312   5.872  12.679   1.542 -0.1772 -1.1595  1.0360
 2029UDC     C522313   5.988  12.783   1.541 -0.7211 -0.1501 -0.8225
 2029UDC     C622314   5.993  12.861   1.677 -0.4635  0.2726 -0.0184
 2029UDC     C722315   6.045  13.006   1.671 -0.2831 -0.4244 -0.3306
 2029UDC     C822316   6.198  13.021   1.671  0.9148 -0.1732 -0.1019
 2029UDC     C922317   6.235  13.164   1.644  0.0822  0.2315 -1.1663
 2029UDC    C1022318   6.134  13.265   1.702  0.7768  1.1906 -0.2295
 2029UDC    C1122319   6.195  13.378   1.782  0.3126 -0.4518  0.1335
 2030UDC     C122320   9.197   1.550  19.265 -0.1468 -0.7268  0.0031
 2030UDC     C222321   9.294   1.582  19.377 -0.5248 -0.7609 -0.0797
 2030UDC     C322322   9.246   1.675  19.494  0.3110 -0.6086  0.2835
 2030UDC     C422323   9.200   1.815  19.450  0.2996  0.5893 -0.6310
 2030UDC     C522324   9.064   1.852  19.497 -0.0068  0.5841 -0.5993
 2030UDC     C622325   9.059   1.985  19.579 -0.0263  0.5480 -0.0387
 2030UDC     C722326   8.920   2.031  19.612  0.4057  0.5584  0.7367
 2030UDC     C822327   8.932   2.172  19.676  0.7703 -0.5489  0.4334
 2030UDC     C922328   8.809   2.173  19.766  0.8317  0.1081 -0.1174
 2030UDC    C1022329   8.792   2.296  19.854 -0.5369 -0.0586  0.7495
 2030UDC    C1122330   8.770   2.433  19.791  0.3844  0.8325  0.1703
 2031UDC     C122331  17.832   8.242  17.994  0.8507 -1.2530  0.7093
 2031UDC     C222332  17.760   8.256  17.860 -0.0268 -0.0858 -0.8311
 2031UDC     C322333  17.702   8.132  17.797  0.0540  0.2094 -0.0314
 2031UDC     C422334  17.596   8.164  17.690  0.3471  1.1918  0.0329
 2031UDC     C522335  17.481   8.058  17.663 -0.2631  0.9965 -0.4668
 2031UDC     C622336  17.431   8.042  17.518  0.1791 -0.3016 -0.6956
 2031UDC     C722337  17.392   7.899  17.498 -0.5464  0.3681 -0.4266
 2031UDC     C822338  17.322   7.861  17.363 -0.4243 -1.0389  0.3754
 2031UDC     C922339  17.358   7.960  17.250 -0.4940  0.5140 -1.6727
 2031UDC    C1022340  17.265   7.931  17.134 -0.3684 -0.1884  0.1159
 2031UDC    C1122341  17.120   7.978  17.151 -0.2243  1.0303  0.2647
 2032UDC     C122342   3.853  15.338  18.723 -0.0801 -1.0862  0.6392
 2032UDC     C222343   3.985  15.262  18.687  1.2641 -0.6065 -0.8408
 2032UDC     C322344   3.962  15.108  18.683 -0.0088 -0.6847  1.1697
 2032UDC     C422345   4.088  15.048  18.610  0.5325 -0.5635  0.2269
 2032UDC     C522346   4.078  14.895  18.605  0.3934  1.1795  1.2104
 2032UDC     C622347   4.157  14.812  18.507 -1.0693  0.9553 -1.1133
 2032UDC     C722348   4.103  14.667  18.514 -0.2261  0.4669  0.1256
 2032UDC     C822349   4.197  14.576  18.597  0.0630 -0.3102 -0.4969
 2032UDC     C922350   4.164  14.429  18.576 -1.0836 -0.1628  0.4461
 2032UDC    C1022351   4.236  14.308  18.647  0.6839 -0.4353 -0.7712
 2032UDC    C1122352   4.142  14.194  18.630 -0.8592  0.2743 -0.0661
 2033UDC     C122353   3.624   0.677  10.485  0.2114  0.7215 -0.3440
 2033UDC     C222354   3.540   0.578  10.573  0.4025 -0.6397 -0.3563
 2033UDC     C322355   3.537   0.576  10.727  0.3286  0.4684  0.4991
 2033UDC     C422356   3.455   0.449  10.759  1.0484 -0.6580  0.7659
 2033UDC     C522357   3.496   0.333  10.659  0.7900 -0.3923  0.5546
 2033UDC     C622358   3.416   0.207  10.650 -0.1939  0.4359 -0.6515
 2033UDC     C722359   3.443   0.130  10.520 -0.6515  0.8045  0.3824
 2033UDC     C822360   3.339   0.018  10.504  0.3893  0.1833  0.4854
 2033UDC     C922361   3.264  -0.001  10.636 -0.2269  0.8835 -0.9674
 2033UDC    C1022362   3.163  -0.115  10.635 -0.4625  0.5851 -0.7191
 2033UDC    C1122363   3.054  -0.109  10.741 -0.2256  0.1230 -0.7800
 2034UDC     C122364   3.545  16.775   1.623  0.5488 -0.3058  0.7195
 2034UDC     C222365   3.405  16.844   1.614 -0.5851 -0.1332 -0.2168
 2034UDC     C322366   3.356  16.906   1.483  0.5020  0.7650 -0.4266
 2034UDC     C422367   3.232  16.986   1.506  0.2806  0.3744  0.9841
 2034UDC     C522368   3.208  17.065   1.631  0.5229  0.9918  0.1409
 2034UDC     C622369   3.063  17.097   1.683  0.7225  1.2530  0.4039
 2034UDC     C722370   3.054  17.185   1.801  0.2430  0.2675  0.5587
 2034UDC     C822371   2.909  17.182   1.859 -0.2849 -0.5987 -0.9236
 2034UDC     C922372   2.841  17.320   1.861 -0.5467 -0.6875  0.5139
 2034UDC    C1022373   2.693  17.323   1.898  0.2517 -0.5992  0.9489
 2034UDC    C1122374   2.638  17.453   1.968 -0.6588  0.7314  0.1611
 2035UDC     C122375  11.030   7.877   9.643  0.7598 -0.6621 -0.5451
 2035UDC     C222376  11.174   7.839   9.672  0.6365 -0.8689  0.5191
 2035UDC     C322377  11.264   7.731   9.604 -1.9264 -0.0625 -0.2370
 2035UDC     C422378  11.272   7.701   9.459 -0.1170 -0.3713 -0.0785
 2035UDC     C522379  11.177   7.579   9.432  0.6237 -0.3530  0.9380
 2035UDC     C622380  11.199   7.516   9.296 -0.3224  0.0143  1.1163
 2035UDC     C722381  11.328   7.440   9.290 -0.7739  0.0079  0.0250
 2035UDC     C822382  11.370   7.351   9.168  0.5425  0.1957 -0.2299
 2035UDC     C922383  11.513   7.290   9.178  0.4627  0.0833 -0.6760
 2035UDC    C1022384  11.532   7.199   9.054  0.6964 -0.6517 -0.1453
 2035UDC    C1122385  11.446   7.067   9.067  0.7034  0.9040  0.2054
 2036UDC     C122386   9.225   0.671   5.074 -0.2941  0.5098  0.4340
 2036UDC     C222387   9.119   0.672   5.193 -0.8102  0.0889  0.5367
 2036UDC     C322388   9.028   0.544   5.207  0.2460  0.9264  0.1700
 2036UDC     C422389   9.074   0.411   5.276 -1.2860  0.8679  0.3569
 2036UDC     C522390   9.033   0.298   5.176  0.5131 -0.3365  0.7420
 2036UDC     C622391   9.106   0.169   5.227  0.2838  0.0014 -0.3569
 2036UDC     C722392   9.095   0.043   5.144  0.1776  1.0811  0.5639
 2036UDC     C822393   9.012  -0.069   5.209 -1.0425  0.9084 -0.0449
 2036UDC     C922394   9.035  -0.097   5.357 -0.0389  0.2863 -0.3475
 2036UDC    C1022395   9.174  -0.095   5.417  0.3203 -0.3265 -0.1077
 2036UDC    C1122396   9.171  -0.078   5.568  0.1618 -0.4686 -0.7375
 2037UDC     C122397  12.331  12.061  13.733 -0.4293  0.0957  0.2616
 2037UDC     C222398  12.366  11.917  13.711  0.2434 -0.1556  0.5871
 2037UDC     C322399  12.458  11.890  13.587 -0.5966  0.0099 -0.3167
 2037UDC     C422400  12.460  11.739  13.546  0.1407 -1.0142 -1.2095
 2037UDC     C522401  12.498  11.735  13.391  1.2549  0.9339 -0.6450
 2037UDC     C622402  12.643  11.780  13.388  0.4008 -0.0387  0.4325
 2037UDC     C722403  12.706  11.815  13.250  0.0146 -0.4935 -0.3904
 2037UDC     C822404  12.638  11.910  13.151  0.8705 -0.5794  0.0155
 2037UDC     C922405  12.698  11.868  13.021  0.7709  0.0083 -0.4787
 2037UDC    C1022406  12.604  11.900  12.906  0.5734  0.3987  1.5952
 2037UDC    C1122407  12.474  11.820  12.881 -0.3665  0.1881 -1.2815
 2038UDC     C122408  13.839   0.081   5.688 -0.6078  0.4894 -0.2557
 2038UDC     C222409  13.904   0.219   5.661 -0.3978  0.8026  0.1425
 2038UDC     C322410  13.925   0.223   5.512 -0.7837 -1.5958  0.2991
 2038UDC     C422411  13.924   0.362   5.437  0.0087  0.4415 -0.0867
 2038UDC     C522412  13.975   0.373   5.298 -0.0005 -0.4046  0.9742
 2038UDC     C622413  13.942   0.508   5.229  0.4576 -0.8239 -0.4652
 2038UDC     C722414  14.004   0.631   5.297 -0.7253 -0.1027 -0.7801
 2038UDC     C822415  14.145   0.651   5.235  1.1330  0.3609 -0.2631
 2038UDC     C922416  14.148   0.720   5.099 -0.4544 -0.6760 -0.4149
 2038UDC    C1022417  14.296   0.747   5.044  0.3274 -0.2389  0.3471
 2038UDC    C1122418  14.340   0.849   5.145 -0.8409 -1.1719  0.1898
 2039UDC     C122419   5.224  16.682  18.418 -0.5582  0.3521 -0.0693
 2039UDC     C222420   5.103  16.609  18.480  0.3199  0.4842 -0.5404
 2039UDC     C322421   5.139  16.509  18.602 -0.7135 -1.6108 -0.4704
 2039UDC     C422422   5.020  16.422  18.623 -0.2402  0.5186 -0.5200
 2039UDC     C522423   4.922  16.472  18.728 -0.2023  0.4095 -0.4637
 2039UDC     C622424   4.777  16.432  18.705  0.0579  0.3245 -0.3091
 2039UDC     C722425   4.738  16.288  18.750 -0.5850 -0.9625 -0.7463
 2039UDC     C822426   4.654  16.226  18.640 -0.5502  0.1283 -0.4289
 2039UDC     C922427   4.573  16.110  18.710 -0.4583  0.2233 -0.1345
 2039UDC    C1022428   4.436  16.159  18.741  1.0081  0.6692 -0.6428
 2039UDC    C1122429   4.393  16.284  18.650 -1.1559  0.4860 -1.0471
 2040UDC     C122430  17.857   4.575  14.788  0.3041  0.1028 -0.5287
 2040UDC     C222431  17.748   4.493  14.707  0.5627 -0.6616 -0.1967
 2040UDC     C322432  17.758   4.342  14.749  0.3562 -0.4528 -1.2656
 2040UDC     C422433  17.744   4.314  14.901  0.3029  0.2944 -0.7382
 2040UDC     C522434  17.819   4.192  14.961 -0.1621  0.4687  0.2608
 2040UDC     C622435  17.966   4.204  15.003 -0.2894 -1.0928 -0.8762
 2040UDC     C722436  18.056   4.181  14.890  1.1069  0.5024  0.1136
 2040UDC     C822437  18.196   4.158  14.931  0.2297  0.0387 -0.0516
 2040UDC     C922438  18.265   4.282  14.992 -0.2081 -0.6725 -0.0561
 2040UDC    C1022439  18.414   4.288  15.017 -0.1984 -0.0896 -0.2872
 2040UDC    C1122440  18.451   4.441  15.029 -0.3882 -0.2054 -0.4228
 2041UDC     C122441   0.484   4.658   2.411  1.2752  0.6768  0.1323
 2041UDC     C222442   0.483   4.638   2.254  0.3622 -0.6308  0.1303
 2041UDC     C322443   0.392   4.524   2.208 -0.8624 -0.7832 -0.3842
 2041UDC     C422444   0.445   4.447   2.081  1.0776 -0.0030 -0.6741
 2041UDC     C522445   0.399   4.509   1.948  1.0725 -0.6027 -0.2592
 2041UDC     C622446   0.463   4.462   1.819 -1.3972 -0.6136 -0.7635
 2041UDC     C722447   0.441   4.314   1.788 -0.3860 -0.7151  0.2089
 2041UDC     C822448   0.490   4.287   1.649 -0.5028 -0.7636 -0.7165
 2041UDC     C922449   0.452   4.146   1.595 -0.1479 -0.8256  0.9931
 2041UDC    C1022450   0.501   4.113   1.446 -0.7423 -0.5995  0.6479
 2041UDC    C1122451   0.658   4.136   1.421  0.1441  1.3394  0.1245
 2042UDC     C122452  11.352   1.193  17.037 -0.6466  1.3748 -0.8121
 2042UDC     C222453  11.278   1.319  17.077 -0.2354  0.9011  0.4545
 2042UDC     C322454  11.145   1.290  17.005  0.2545 -0.4220 -0.0070
 2042UDC     C422455  11.048   1.400  17.024  0.6707 -0.5802  0.9009
 2042UDC     C522456  10.911   1.379  16.958  0.4801 -0.8622 -0.2644
 2042UDC     C622457  10.825   1.512  16.929 -0.0755 -0.1828 -0.6567
 2042UDC     C722458  10.869   1.639  16.856  0.2191 -0.0667 -0.3912
 2042UDC     C822459  10.783   1.763  16.843 -0.4781 -1.2368 -0.2356
 2042UDC     C922460  10.730   1.790  16.697  0.3132 -0.8664 -0.0684
 2042UDC    C1022461  10.637   1.924  16.696 -0.1672  1.1258  1.1436
 2042UDC    C1122462  10.711   2.056  16.723  0.7231  0.2442  0.0197
 2043UDC     C122463  19.173   0.274  17.700 -0.1848 -0.3945  0.7232
 2043UDC     C222464  19.159   0.347  17.563  0.4026 -0.3047  0.2214
 2043UDC     C322465  19.028   0.427  17.577 -0.6230 -1.0975  0.1353
 2043UDC     C422466  19.037   0.578  17.582  1.5119 -0.7836 -0.7288
 2043UDC     C522467  18.898   0.648  17.618 -0.4512 -0.3150  0.6267
 2043UDC     C622468  18.934   0.781  17.677  0.5505 -0.6028  0.2707
 2043UDC     C722469  18.822   0.876  17.725  0.9334 -0.2311 -0.4225
 2043UDC     C822470  18.757   0.957  17.614  0.3430 -0.3680  0.1972
 2043UDC     C922471  18.687   1.067  17.684  0.1494  0.5799 -0.2214
 2043UDC    C1022472  18.624   1.172  17.592 -0.4208  0.9779 -0.8807
 2043UDC    C1122473  18.525   1.104  17.490 -0.1664  0.2222  0.8812
 2044UDC     C122474  13.106  15.149  14.286 -0.0958 -0.0039  0.5392
 2044UDC     C222475  13.231  15.059  14.259 -1.0398 -0.3949  0.5668
 2044UDC     C322476  13.277  14.981  14.388 -0.4800 -0.3448 -0.5395
 2044UDC     C422477  13.401  14.887  14.371  0.4111 -1.1747  0.5390
 2044UDC     C522478  13.491  14.903  14.491  0.2449 -0.3763  0.4132
 2044UDC     C622479  13.578  15.026  14.462  1.0790  0.3506  1.0314
 2044UDC     C722480  13.669  15.066  14.579 -0.0177 -0.0609  0.6442
 2044UDC     C822481  13.786  14.978  14.601  0.8283  0.1684 -0.0202
 2044UDC     C922482  13.885  14.963  14.483 -0.3074 -0.2462 -0.7990
 2044UDC    C1022483  13.907  15.104  14.424 -1.2794 -0.4413 -0.1664
 2044UDC    C1122484  13.956  15.123  14.281 -0.1003 -0.4997 -0.2145
 2045UDC     C122485   1.604   0.219   1.336  1.0902  0.2969 -0.1763
 2045UDC     C222486   1.548   0.096   1.406 -0.1173  0.9987  0.7716
 2045UDC     C322487   1.664  -0.010   1.424 -0.0701  0.5022  0.5151
 2045UDC     C422488   1.623  -0.127   1.515  0.4712 -0.8303  1.0421
 2045UDC     C522489   1.528  -0.224   1.446 -0.1655 -0.1553  0.1918
 2045UDC     C622490   1.567  -0.283   1.309  0.9531 -0.1673  0.4674
 2045UDC     C722491   1.438  -0.284   1.215  0.2355  0.0309 -0.5296
 2045UDC     C822492   1.328  -0.373   1.277  0.7459 -0.5088 -0.1718
 2045UDC     C922493   1.182  -0.363   1.226  0.7056 -0.4687  0.2833
 2045UDC    C1022494   1.100  -0.477   1.286  0.7527 -0.1595  0.6232
 2045UDC    C1122495   1.151  -0.601   1.205  0.5570 -0.2825 -0.3801
 2046UDC     C122496  14.978  12.907  16.430  0.4989 -0.0772 -1.1312
 2046UDC     C222497  14.835  12.957  16.451  1.5636 -0.1511 -0.3173
 2046UDC     C322498  14.771  12.953  16.309  0.4911  0.9362 -0.5635
 2046UDC     C422499  14.841  13.035  16.208  1.1034 -1.4036  0.1286
 2046UDC     C522500  14.810  13.007  16.064  0.2983  0.1807  0.5403
 2046UDC     C622501  14.832  12.857  16.029  1.1017  0.3064  0.4950
 2046UDC     C722502  14.982  12.835  15.993  0.1700 -0.3545  0.3396
 2046UDC     C822503  15.011  12.695  15.935  0.5428  0.4464  0.3126
 2046UDC     C922504  14.923  12.596  16.010  0.0647  0.0631 -0.0770
 2046UDC    C1022505  14.947  12.452  15.974 -0.2390 -0.9516 -0.0524
 2046UDC    C1122506  14.879  12.415  15.844 -0.2241 -0.1491 -0.8826
 2047UDC     C122507   2.325   4.714   3.782 -0.2591  0.1286  0.5898
 2047UDC     C222508   2.245   4.741   3.652 -0.2652 -0.9027 -0.2769
 2047UDC     C322509   2.256   4.634   3.548 -0.5291  0.1526  0.4725
 2047UDC     C422510   2.199   4.664   3.409 -0.1522  0.9677 -0.6128
 2047UDC     C522511   2.228   4.553   3.317  0.4538  0.9135  0.3535
 2047UDC     C622512   2.189   4.594   3.179  0.1188 -0.5380  0.2007
 2047UDC     C722513   2.065   4.542   3.104  0.1893 -0.0243 -0.3863
 2047UDC     C822514   1.940   4.629   3.088  0.3254 -0.6272  0.4538
 2047UDC     C922515   1.869   4.710   3.197  1.0033 -0.7617  0.1095
 2047UDC    C1022516   1.765   4.817   3.140 -1.0165  1.6630  0.2785
 2047UDC    C1122517   1.812   4.960   3.116  0.2024  0.4890  0.9906
 2048UDC     C122518  12.941  17.170   4.120 -0.2713  0.7911  0.8722
 2048UDC     C222519  12.798  17.115   4.145 -0.0340 -0.3424 -0.3604
 2048UDC     C322520  12.791  16.975   4.219  0.1805  0.3440 -0.3097
 2048UDC     C422521  12.655  16.901   4.241  0.0470 -0.0790  0.2912
 2048UDC     C522522  12.591  16.849   4.113  0.5287 -1.0648  0.2228
 2048UDC     C622523  12.466  16.753   4.141 -0.5847  0.5840  0.2716
 2048UDC     C722524  12.398  16.777   4.275  0.4746  0.4433 -0.0691
 2048UDC     C822525  12.317  16.651   4.316 -0.3149 -1.1854  0.5099
 2048UDC     C922526  12.170  16.642   4.277 -0.0838  0.4278 -0.9094
 2048UDC    C1022527  12.153  16.582   4.139 -0.7361  0.3039 -0.4239
 2048UDC    C1122528  12.007  16.588   4.134  0.1350 -0.2066  0.6679
 2049UDC     C122529   2.117   1.532  15.834  0.7168 -0.5534  0.5062
 2049UDC     C222530   2.246   1.445  15.838  0.5958  0.5130 -0.9931
 2049UDC     C322531   2.195   1.298  15.853 -0.2021 -0.5326 -0.0463
 2049UDC     C422532   2.148   1.265  15.992  0.2864 -0.2489 -0.6097
 2049UDC     C522533   2.269   1.294  16.093 -0.2307  0.1610 -0.0163
 2049UDC     C622534   2.268   1.262  16.248  0.1524 -0.0338 -0.0627
 2049UDC     C722535   2.392   1.310  16.322 -0.4181 -1.3189 -0.3399
 2049UDC     C822536   2.417   1.250  16.462  0.0312  0.9524 -1.8600
 2049UDC     C922537   2.550   1.276  16.531 -1.5869  0.5956  0.3857
 2049UDC    C1022538   2.624   1.141  16.553  0.5557 -0.3509 -0.5433
 2049UDC    C1122539   2.752   1.136  16.633  0.6364 -0.0023 -0.0006
 2050UDC     C122540   4.153  18.452   0.648 -0.5662  1.7526  0.1319
 2050UDC     C222541   4.136  18.306   0.591 -0.5800 -0.3805 -1.1736
 2050UDC     C322542   4.215  18.218   0.696 -0.5295 -0.7498  0.8412
 2050UDC     C422543   4.177  18.076   0.719  0.1139 -0.4277 -0.2384
 2050UDC     C522544   4.253  18.009   0.832  0.4079 -0.2694  0.1423
 2050UDC     C622545   4.246  18.057   0.981 -0.3899 -0.4204  0.6227
 2050UDC     C722546   4.332  17.975   1.076  0.5586 -0.0082  0.9695
 2050UDC     C822547   4.260  17.840   1.119 -0.2609 -0.6646  0.1472
 2050UDC     C922548   4.336  17.721   1.048  0.4443 -0.8532 -0.0958
 2050UDC    C1022549   4.251  17.600   1.084  0.0875 -0.2906 -0.5213
 2050UDC    C1122550   4.294  17.455   1.101  0.0350 -0.7437 -1.6186
 2051UDC     C122551  12.427   6.335  18.859 -0.1050 -0.1373 -0.4298
 2051UDC     C222552  12.442   6.175  18.886 -0.2795  0.1159 -0.9111
 2051UDC     C322553  12.300   6.119  18.914  0.0384  0.6623 -0.2446
 2051UDC     C422554  12.286   5.979  18.976 -0.4888  0.4554 -1.3467
 2051UDC     C522555  12.144   5.960  19.032  0.3806  0.1048 -0.0875
 2051UDC     C622556  12.125   5.834  19.111  0.2028  0.0570 -0.6759
 2051UDC     C722557  12.010   5.845  19.210 -0.0339 -0.2498 -0.0905
 2051UDC     C822558  11.990   5.703  19.256  0.9302 -0.4062  0.6091
 2051UDC     C922559  11.932   5.618  19.144  1.2309  0.7171  0.2866
 2051UDC    C1022560  11.929   5.465  19.160  0.8314  0.3731 -0.0664
 2051UDC    C1122561  12.061   5.390  19.176 -0.9939 -0.0269 -1.3387
 2052UDC     C122562  10.008   9.413   2.010  0.6972  0.6090  0.5261
 2052UDC     C222563  10.139   9.384   1.933 -1.3987  0.2052  0.2456
 2052UDC     C322564  10.249   9.329   2.028  1.1627  0.7086 -0.0213
 2052UDC     C422565  10.289   9.410   2.151  0.7946  0.2051 -0.1249
 2052UDC     C522566  10.415   9.375   2.221  0.8820  0.2806 -1.0516
 2052UDC     C622567  10.542   9.399   2.129 -0.5212 -0.1798 -0.6374
 2052UDC     C722568  10.549   9.543   2.058  0.9309 -0.1564 -0.4547
 2052UDC     C822569  10.580   9.657   2.149 -0.3148 -0.0733 -0.2941
 2052UDC     C922570  10.570   9.795   2.085  0.2629  0.0236  0.0548
 2052UDC    C1022571  10.533   9.894   2.193  0.0386  0.1432 -0.4160
 2052UDC    C1122572  10.475  10.028   2.146  0.2124 -1.0952  0.8127
 2053UDC     C122573  11.703   7.707  16.292  1.0084  0.4910  0.5184
 2053UDC     C222574  11.737   7.850  16.239  0.0619  0.7163  1.0549
 2053UDC     C322575  11.708   7.976  16.327  0.2875  0.6614 -0.0092
 2053UDC     C422576  11.763   8.104  16.277  0.0630  0.1152  0.5265
 2053UDC     C522577  11.719   8.236  16.353  0.8160 -0.1128 -0.1771
 2053UDC     C622578  11.796   8.356  16.331  0.0754 -0.7248 -0.5804
 2053UDC     C722579  11.941   8.317  16.356  0.5379  0.8469 -0.0298
 2053UDC     C822580  12.037   8.435  16.371 -0.1731  0.3034 -0.3090
 2053UDC     C922581  12.103   8.510  16.258 -0.0875  0.5187  0.0008
 2053UDC    C1022582  12.172   8.643  16.285 -0.0820  1.3092  0.1686
 2053UDC    C1122583  12.221   8.719  16.161 -1.1289  0.6708  0.0307
 2054UDC     C122584   3.307   3.879  10.297 -0.0620 -0.7117  0.0640
 2054UDC     C222585   3.211   3.856  10.181 -0.3605 -0.2537 -0.5972
 2054UDC     C322586   3.248   3.743  10.080 -0.3053 -0.1630 -0.8479
 2054UDC     C422587   3.145   3.741   9.965  0.3783  0.2829 -0.2640
 2054UDC     C522588   3.025   3.649   9.999  0.0532 -0.5945  0.4503
 2054UDC     C622589   2.911   3.712  10.077  0.2063  1.3477 -0.2103
 2054UDC     C722590   2.787   3.626  10.100 -0.4721 -0.3298 -1.1783
 2054UDC     C822591   2.756   3.555  10.234  0.5835 -1.0179 -0.5830
 2054UDC     C922592   2.605   3.526  10.216 -0.3890 -0.2045  0.3131
 2054UDC    C1022593   2.573   3.453  10.080  1.1537  0.6635  0.3603
 2054UDC    C1122594   2.427   3.392  10.075 -0.7002  0.3854  0.2255
 2055UDC     C122595   9.767   3.852  17.033  0.3449  1.8038 -0.3555
 2055UDC     C222596   9.912   3.814  17.070  0.5177  0.5621 -1.0575
 2055UDC     C322597  10.003   3.766  16.953  0.3556  0.0780  0.1967
 2055UDC     C422598   9.949   3.634  16.886 -0.4793 -0.4667 -0.4167
 2055UDC     C522599   9.916   3.519  16.983 -0.7642  1.0498  0.9484
 2055UDC     C622600   9.980   3.392  16.917 -0.5671 -0.8532  0.1563
 2055UDC     C722601   9.899   3.273  16.978  0.4438 -1.1779 -0.1850
 2055UDC     C822602   9.859   3.155  16.888  0.7416  0.6277  0.0266
 2055UDC     C922603   9.939   3.147  16.756  1.1799 -0.2863 -0.2521
 2055UDC    C1022604   9.887   3.037  16.659  0.3037  0.6111  0.3829
 2055UDC    C1122605   9.909   2.884  16.685  0.6560 -0.3724 -0.0059
 2056UDC     C122606   8.238  15.637  15.830  0.6647  0.4080  0.0107
 2056UDC     C222607   8.089  15.601  15.785 -0.1517  0.4166 -1.1612
 2056UDC     C322608   8.087  15.464  15.711 -0.0775  0.9141  0.0853
 2056UDC     C422609   7.953  15.393  15.705  0.5309 -0.1463  0.9636
 2056UDC     C522610   7.903  15.350  15.845 -1.0243  0.6801 -0.0063
 2056UDC     C622611   8.023  15.276  15.903  1.3282  0.6581 -0.7451
 2056UDC     C722612   8.036  15.223  16.043  0.0649 -0.2678 -0.5376
 2056UDC     C822613   8.136  15.109  16.058 -0.5385  0.6314  0.2894
 2056UDC     C922614   8.173  15.073  16.205  0.0601  0.1809  0.0945
 2056UDC    C1022615   8.064  15.077  16.315 -0.1147 -0.1131 -0.1529
 2056UDC    C1122616   8.113  15.076  16.460  0.6688 -0.0276 -0.2723
 2057UDC     C122617  11.855  12.362  19.332  0.5986  0.1507 -0.0023
 2057UDC     C222618  11.863  12.240  19.236  0.3385 -0.1231  0.4236
 2057UDC     C322619  11.802  12.100  19.277  1.7879 -0.8340  0.7271
 2057UDC     C422620  11.890  12.040  19.384 -0.3251  0.2389 -0.2234
 2057UDC     C522621  11.838  11.908  19.437  1.3471  0.4304  0.0826
 2057UDC     C622622  11.686  11.885  19.473 -0.4778 -1.0431 -0.1837
 2057UDC     C722623  11.648  11.740  19.520 -0.6796 -0.0985 -0.3447
 2057UDC     C822624  11.648  11.636  19.413  0.7483  1.0246 -0.9446
 2057UDC     C922625  11.537  11.657  19.306 -0.1562  0.4748 -0.2856
 2057UDC    C1022626  11.541  11.562  19.187 -0.2773  0.7737  0.1780
 2057UDC    C1122627  11.456  11.580  19.056  0.1392 -0.3746  0.4430
 2058UDC     C122628  16.627  18.758   1.029  0.2727 -0.1253 -0.0371
 2058UDC     C222629  16.516  18.728   1.127  1.4028 -0.1288  0.4519
 2058UDC     C322630  16.456  18.588   1.162  0.3824 -0.5089 -0.8190
 2058UDC     C422631  16.308  18.606   1.173 -0.0494  0.0381  0.4739
 2058UDC     C522632  16.215  18.480   1.187 -1.3361 -0.1362  0.1700
 2058UDC     C622633  16.069  18.511   1.171  0.4580  0.2767 -0.6569
 2058UDC     C722634  15.965  18.411   1.213  0.6387  0.6343 -0.3335
 2058UDC     C822635  15.834  18.446   1.150  0.3685  0.8645 -1.0061
 2058UDC     C922636  15.761  18.583   1.153 -0.3665 -0.1138  0.2137
 2058UDC    C1022637  15.631  18.569   1.069 -0.0213  0.1666 -0.3952
 2058UDC    C1122638  15.565  18.696   1.009  0.1050 -0.7923 -0.8558
 2059UDC     C122639   8.273  18.198   4.722  0.3315 -0.0575 -0.4112
 2059UDC     C222640   8.407  18.278   4.714  0.5599 -0.6638  0.0396
 2059UDC     C322641   8.399  18.419   4.654  1.7191 -0.3186 -0.6447
 2059UDC     C422642   8.526  18.501   4.671  0.2831 -0.0348 -0.1589
 2059UDC     C522643   8.494  18.647   4.701  0.2555 -0.9233  0.0141
 2059UDC     C622644   8.609  18.745   4.746  0.1612  0.0805 -0.0017
 2059UDC     C722645   8.553  18.824   4.867 -0.2480  0.0554 -0.2747
 2059UDC     C822646   8.471  18.933   4.796  0.1663 -0.1130 -0.9849
 2059UDC     C922647   8.419  19.037   4.900  0.9589 -0.2590 -0.8414
 2059UDC    C1022648   8.266  19.069   4.892 -0.9866 -0.2839 -0.8085
 2059UDC    C1122649   8.218  19.169   4.994  0.1859 -0.2408  0.6597
 2060UDC     C122650   8.304  11.656  14.547 -0.9625 -0.0256 -0.7876
 2060UDC     C222651   8.342  11.557  14.661  0.5095  0.7780 -0.2223
 2060UDC     C322652   8.489  11.548  14.706 -0.3949  0.1605 -0.7672
 2060UDC     C422653   8.514  11.398  14.728 -0.7463  0.4740  0.6313
 2060UDC     C522654   8.523  11.342  14.873 -0.5437 -0.0844 -0.0002
 2060UDC     C622655   8.557  11.428  14.992 -0.3901 -0.4254 -1.1249
 2060UDC     C722656   8.555  11.354  15.121  0.1067 -0.4800 -0.5359
 2060UDC     C822657   8.620  11.438  15.235  0.2719  0.0579  1.4695
 2060UDC     C922658   8.637  11.341  15.354 -0.1762 -0.1856  0.1764
 2060UDC    C1022659   8.528  11.362  15.450  0.0669 -0.5925 -0.4562
 2060UDC    C1122660   8.529  11.298  15.582 -0.0634 -0.7629 -0.3770
 2061UDC     C122661  12.101   5.047  18.172  0.5197  0.5197  0.0933
 2061UDC     C222662  11.968   5.109  18.142  0.2965  0.4330 -0.7885
 2061UDC     C322663  11.902   5.037  18.026 -0.8764 -0.7122  1.1277
 2061UDC     C422664  11.746   5.071  18.018  0.2675  0.0203 -0.2845
 2061UDC     C522665  11.681   4.986  17.907  0.0673 -0.8759 -0.2308
 2061UDC     C622666  11.624   5.053  17.772 -0.1875 -0.5335 -0.2375
 2061UDC     C722667  11.598   4.950  17.663 -0.3575 -0.8441 -0.4053
 2061UDC     C822668  11.543   5.023  17.541  0.1315  0.3849 -0.0277
 2061UDC     C922669  11.410   5.088  17.557 -0.7241 -1.7060 -0.0166
 2061UDC    C1022670  11.383   5.158  17.422  0.2576 -0.1032  0.5658
 2061UDC    C1122671  11.243   5.213  17.412  0.4434  1.0345 -0.3504
 2062UDC     C122672  13.926   8.774   2.515 -0.8480 -0.1496  0.6425
 2062UDC     C222673  13.815   8.701   2.446 -0.5274 -0.6539  0.4916
 2062UDC     C322674  13.762   8.755   2.318 -0.3159 -0.0737 -0.4888
 2062UDC     C422675  13.779   8.670   2.194  0.2466 -0.0573 -0.0204
 2062UDC     C522676  13.715   8.538   2.204 -0.2561  1.0731 -0.5529
 2062UDC     C622677  13.764   8.453   2.088  0.3351  0.5216  0.2882
 2062UDC     C722678  13.700   8.315   2.079  0.2136  0.7636  0.6612
 2062UDC     C822679  13.590   8.325   1.971  0.6197 -0.3876 -0.6472
 2062UDC     C922680  13.459   8.396   2.018 -0.6505 -1.9268 -0.0788
 2062UDC    C1022681  13.451   8.548   1.986 -0.4631  0.8030 -0.2985
 2062UDC    C1122682  13.313   8.602   2.026 -0.0869  0.3254  0.2171
 2063UDC     C122683   9.069   6.330  16.718  0.1613 -1.5819  0.9289
 2063UDC     C222684   9.060   6.312  16.572 -0.9694  0.6756  0.5680
 2063UDC     C322685   8.937   6.233  16.538 -0.2603  1.8419 -0.1630
 2063UDC     C422686   8.923   6.101  16.617  0.4049 -0.2107  0.0818
 2063UDC     C522687   8.976   5.971  16.548 -0.2986 -0.2453 -0.4517
 2063UDC     C622688   8.899   5.842  16.582 -1.2208  1.0545  0.2772
 2063UDC     C722689   8.929   5.723  16.493 -0.4883  1.6344 -0.4875
 2063UDC     C822690   8.884   5.586  16.541  1.1296 -1.3923 -0.0401
 2063UDC     C922691   8.870   5.504  16.410 -0.5059 -0.3379 -0.5524
 2063UDC    C1022692   8.789   5.568  16.291  0.4541 -0.3263  0.0545
 2063UDC    C1122693   8.651   5.604  16.339  0.2995 -0.0650 -0.2895
 2064UDC     C122694   3.377  13.591   5.692  0.4377 -0.1784  0.9567
 2064UDC     C222695   3.470  13.700   5.753  1.5942 -0.3826  0.4714
 2064UDC     C322696   3.431  13.851   5.751  0.6154 -0.3000  0.9558
 2064UDC     C422697   3.326  13.913   5.846  0.0620  0.4123 -0.3768
 2064UDC     C522698   3.307  14.051   5.790 -0.1524  0.3303  0.3679
 2064UDC     C622699   3.183  14.062   5.697 -0.2119  1.1554  1.1138
 2064UDC     C722700   3.099  14.191   5.694 -0.6955 -0.6752  0.2418
 2064UDC     C822701   2.962  14.179   5.614 -0.4026 -0.5033 -0.2169
 2064UDC     C922702   2.859  14.081   5.662  0.8570 -1.2295 -0.3583
 2064UDC    C1022703   2.766  14.039   5.549 -0.0557 -0.0397  0.1896
 2064UDC    C1122704   2.703  14.157   5.474 -0.2359  0.2347  0.2034
 2065UDC     C122705   3.692  19.481   7.805 -0.0487 -0.1787  0.5186
 2065UDC     C222706   3.735  19.352   7.882 -0.4009  0.2468 -0.0140
 2065UDC     C322707   3.865  19.371   7.974  0.9586  0.9006 -0.8903
 2065UDC     C422708   3.834  19.480   8.076 -0.5040  0.6724  0.2114
 2065UDC     C522709   3.934  19.496   8.182 -0.6690 -0.8963  0.8325
 2065UDC     C622710   3.953  19.359   8.248 -0.1799 -0.7227 -0.3939
 2065UDC     C722711   4.089  19.358   8.337 -0.1269 -0.6707  1.0031
 2065UDC     C822712   4.207  19.424   8.258 -0.0474 -0.3099 -0.8722
 2065UDC     C922713   4.277  19.331   8.168  0.4805 -0.4786 -0.2903
 2065UDC    C1022714   4.430  19.335   8.177 -0.4081  0.1991 -0.0303
 2065UDC    C1122715   4.496  19.303   8.041 -0.0653  0.2202  0.1900
 2066UDC     C122716  13.140  19.637   4.299 -0.0261  0.0610  1.1025
 2066UDC     C222717  13.081  19.692   4.432 -0.8355 -0.8642 -1.0419
 2066UDC     C322718  12.999  19.818   4.421 -0.5614 -0.4579 -0.9024
 2066UDC     C422719  13.025  19.941   4.513  1.1293  0.9054  0.8099
 2066UDC     C522720  13.168  19.984   4.485 -0.5090 -0.5304 -0.1002
 2066UDC     C622721  13.196  20.040   4.342 -0.4864 -0.7023 -0.0028
 2066UDC     C722722  13.336  20.096   4.306 -0.6849 -1.0274  0.3273
 2066UDC     C822723  13.453  19.996   4.293  0.0453  0.4563 -0.5436
 2066UDC     C922724  13.434  19.886   4.191 -0.5181  1.6217  0.6914
 2066UDC    C1022725  13.530  19.768   4.164  0.8158  0.5251  0.1554
 2066UDC    C1122726  13.506  19.674   4.042  0.6802 -0.3859  0.4363
 2067UDC     C122727   0.312  11.661  16.951 -0.0931  0.1340 -0.7338
 2067UDC     C222728   0.261  11.533  16.878  0.1460  0.1077 -0.6155
 2067UDC     C322729   0.226  11.550  16.735 -0.9310  0.7978  0.4076
 2067UDC     C422730   0.176  11.425  16.665 -0.1798  0.7806  1.1713
 2067UDC     C522731   0.171  11.419  16.508 -0.6755 -0.7858  0.7565
 2067UDC     C622732   0.050  11.402  16.420 -0.3602 -0.1018 -0.6599
 2067UDC     C722733   0.071  11.449  16.278 -0.0589 -0.6277  0.9328
 2067UDC     C822734   0.037  11.598  16.251  0.2959  0.0802 -0.8695
 2067UDC     C922735  -0.064  11.652  16.155 -0.4665 -0.2336 -0.4067
 2067UDC    C1022736  -0.099  11.794  16.196 -0.4144  0.5620  0.2823
 2067UDC    C1122737  -0.131  11.821  16.348 -0.0301 -1.0047 -0.4285
 2068UDC     C122738   4.775  19.761  13.217  0.5975 -0.1795 -0.3623
 2068UDC     C222739   4.778  19.619  13.143 -0.0436  0.6100  1.0615
 2068UDC     C322740   4.857  19.635  13.008  0.9009  0.5484 -0.5694
 2068UDC     C422741   4.784  19.701  12.893  0.8776  0.0371 -1.1832
 2068UDC     C522742   4.654  19.619  12.867 -0.6985  0.0712  0.0817
 2068UDC     C622743   4.627  19.581  12.718  0.3277 -0.3325  1.0526
 2068UDC     C722744   4.563  19.705  12.650 -0.0885  0.2065  0.5693
 2068UDC     C822745   4.518  19.667  12.507  1.2226  0.3095 -0.0082
 2068UDC     C922746   4.516  19.765  12.383 -0.0428 -1.3043 -0.0967
 2068UDC    C1022747   4.455  19.702  12.256  0.5362 -1.2426 -0.5949
 2068UDC    C1122748   4.473  19.789  12.133  0.9863 -0.6521  1.6540
 2069UDC     C122749  17.212   5.823   1.465 -0.0191  0.0905 -0.5228
 2069UDC     C222750  17.134   5.703   1.420 -0.2932  0.6853 -1.1125
 2069UDC     C322751  16.986   5.731   1.459  0.5546 -0.9962  1.0591
 2069UDC     C422752  16.898   5.678   1.339 -0.9659 -0.4561 -0.0605
 2069UDC     C522753  16.749   5.681   1.372 -0.1822 -0.4045 -1.0667
 2069UDC     C622754  16.667   5.595   1.282  0.4960  1.2133  0.4165
 2069UDC     C722755  16.677   5.661   1.140 -0.7262 -0.3956  0.3414
 2069UDC     C822756  16.589   5.590   1.031  0.0004  0.4757 -0.8433
 2069UDC     C922757  16.539   5.672   0.920 -0.6447 -0.5631 -0.2149
 2069UDC    C1022758  16.514   5.822   0.972  0.4893  1.3321 -0.3018
 2069UDC    C1122759  16.449   5.934   0.885 -0.8564  0.3513  0.7583
 2070UDC     C122760   1.079  19.984   7.465 -1.1589 -0.1514 -0.9788
 2070UDC     C222761   1.005  19.963   7.593  0.3358 -0.8412  0.4041
 2070UDC     C322762   0.877  20.052   7.595 -1.7843 -0.4490 -0.1462
 2070UDC     C422763   0.807  20.047   7.731 -0.0690 -0.5361 -0.4090
 2070UDC     C522764   0.707  20.159   7.772 -0.4497 -0.1576 -0.1079
 2070UDC     C622765   0.606  20.181   7.655 -0.0581  0.5430 -1.0683
 2070UDC     C722766   0.503  20.066   7.657  0.1687  0.4931 -0.9121
 2070UDC     C822767   0.376  20.106   7.744  0.6031 -0.2250  0.0622
 2070UDC     C922768   0.274  19.996   7.761 -0.2283 -0.1269 -0.8921
 2070UDC    C1022769   0.177  20.049   7.874 -0.0082 -0.3047 -0.6159
 2070UDC    C1122770   0.126  19.922   7.944  0.0408  1.1106 -0.0988
 2071UDC     C122771   6.815  10.766   3.026  1.0501  1.0664  0.0123
 2071UDC     C222772   6.917  10.681   3.116 -0.6195 -0.2666  0.5380
 2071UDC     C322773   7.019  10.613   3.020 -0.3160 -0.4632 -0.3888
 2071UDC     C422774   7.072  10.725   2.928  0.2405 -1.1233 -0.2307
 2071UDC     C522775   7.122  10.663   2.796 -0.0566  0.8858  0.2630
 2071UDC     C622776   7.277  10.662   2.799  0.4372  0.5582  0.3459
 2071UDC     C722777   7.342  10.577   2.901 -0.0096  0.4954  1.2189
 2071UDC     C822778   7.499  10.568   2.899  1.0468  0.1682  0.4725
 2071UDC     C922779   7.569  10.487   2.789  0.1103 -0.1397  0.5683
 2071UDC    C1022780   7.620  10.342   2.803  0.2332  0.6736  1.8980
 2071UDC    C1122781   7.695  10.291   2.666  0.6899 -1.3933 -0.9181
 2072UDC     C122782   6.134  16.842   2.987  0.8693  0.3480  0.0948
 2072UDC     C222783   6.020  16.945   2.954  0.2200  0.8393  0.4493
 2072UDC     C322784   5.888  16.898   2.887 -0.2690 -0.0684 -0.2096
 2072UDC     C422785   5.777  16.859   2.992  0.3021 -0.2289  0.4624
 2072UDC     C522786   5.646  16.903   2.916  0.1004  1.1440 -0.2573
 2072UDC     C622787   5.515  16.868   2.993 -0.0257 -0.4848  0.5011
 2072UDC     C722788   5.522  16.954   3.128  0.7204 -0.1045 -0.7889
 2072UDC     C822789   5.389  16.971   3.202 -0.0383  0.4243 -0.0828
 2072UDC     C922790   5.397  17.040   3.341 -0.2440  0.2168  0.3675
 2072UDC    C1022791   5.392  17.193   3.335  0.5418 -0.3425  0.4536
 2072UDC    C1122792   5.490  17.274   3.431  0.5455 -0.7601  0.0033
 2073UDC     C122793   6.343   5.830   0.451  0.1687  0.9974  0.3624
 2073UDC     C222794   6.379   5.764   0.309 -1.0232 -0.2950  0.3904
 2073UDC     C322795   6.518   5.797   0.268  0.4829 -0.1452  0.4073
 2073UDC     C422796   6.549   5.841   0.119 -0.7354 -0.4454 -1.2730
 2073UDC     C522797   6.664   5.946   0.101 -0.4245  0.5719 -0.2947
 2073UDC     C622798   6.640   5.984  -0.049 -0.1900 -0.9302 -0.2770
 2073UDC     C722799   6.754   5.967  -0.145  0.6877  1.2399 -0.3707
 2073UDC     C822800   6.703   5.930  -0.288  0.2722 -0.8375 -2.0273
 2073UDC     C922801   6.822   5.930  -0.379  1.2624  0.1657  0.8700
 2073UDC    C1022802   6.767   5.943  -0.524  0.3275 -0.1391  1.0969
 2073UDC    C1122803   6.619   5.913  -0.530 -0.3795  0.3263 -1.3177
 2074UDC     C122804  13.685   9.482   7.996 -0.3454 -0.2100  0.8667
 2074UDC     C222805  13.669   9.399   8.126 -0.1417 -0.3437  0.1254
 2074UDC     C322806  13.527   9.391   8.180  0.0208 -0.5242  0.3829
 2074UDC     C422807  13.504   9.368   8.337  0.0536  0.3535  1.0083
 2074UDC     C522808  13.389   9.270   8.367 -0.7588 -0.5205 -0.0880
 2074UDC     C622809  13.400   9.122   8.347  0.1849 -0.6093  0.6251
 2074UDC     C722810  13.279   9.067   8.434  0.2389  0.0828 -0.7206
 2074UDC     C822811  13.300   8.922   8.492  0.8123  0.1958  0.6235
 2074UDC     C922812  13.284   8.809   8.388 -0.4344  0.6095 -0.1413
 2074UDC    C1022813  13.145   8.748   8.376 -0.7011 -0.0041  1.3697
 2074UDC    C1122814  13.132   8.671   8.241 -0.2637  1.7036  0.2114
 2075UDC     C122815  19.396   3.741  17.352  0.3106 -0.2852 -0.2751
 2075UDC     C222816  19.501   3.839  17.387 -0.6820 -0.1253 -0.4391
 2075UDC     C322817  19.614   3.876  17.292  0.2891 -0.6383  0.4872
 2075UDC     C422818  19.683   4.015  17.319 -0.8075 -0.8472 -0.9138
 2075UDC     C522819  19.812   4.046  17.241  0.5276  0.6047 -0.2283
 2075UDC     C622820  19.926   4.126  17.303 -0.8156 -0.4917  0.2194
 2075UDC     C722821  20.051   4.073  17.224 -0.8956  0.1654 -0.5335
 2075UDC     C822822  20.097   3.931  17.271  1.1318 -1.0074 -0.6210
 2075UDC     C922823  20.208   3.867  17.188 -0.8613 -0.3289  0.7908
 2075UDC    C1022824  20.353   3.921  17.212  0.3576  0.6939 -1.6429
 2075UDC    C1122825  20.459   3.823  17.152 -0.7014  0.2949  0.1213
 2076UDC     C122826   5.378  10.604  13.820 -1.0955  0.4777  0.4486
 2076UDC     C222827   5.259  10.633  13.733  1.0538  0.8270 -0.4677
 2076UDC     C322828   5.280  10.747  13.637  0.1815  0.7708 -0.2026
 2076UDC     C422829   5.133  10.782  13.585  0.5182  1.3629 -0.3098
 2076UDC     C522830   5.070  10.900  13.668 -0.9720  0.0880 -0.1469
 2076UDC     C622831   4.923  10.900  13.668  0.5854 -0.3233 -0.6104
 2076UDC     C722832   4.844  10.974  13.556  0.5064 -0.1903 -0.3982
 2076UDC     C822833   4.704  11.032  13.581 -1.2672 -0.0258 -0.7474
 2076UDC     C922834   4.611  10.924  13.643  0.4190  0.5528  0.4502
 2076UDC    C1022835   4.475  10.988  13.676  0.9869 -0.1351  0.4532
 2076UDC    C1122836   4.398  10.879  13.747 -0.2161  0.1950 -0.1683
 2077UDC     C122837  14.133   8.097  16.909  0.4090 -0.8803 -0.3136
 2077UDC     C222838  14.027   8.166  16.815  0.2288  0.3093  0.1125
 2077UDC     C322839  13.897   8.093  16.852  0.0782 -0.0764 -0.7838
 2077UDC     C422840  13.776   8.146  16.780 -0.4469 -0.6490 -0.2937
 2077UDC     C522841  13.655   8.114  16.871  1.0466  0.4638 -0.2627
 2077UDC     C622842  13.623   8.205  16.997 -0.4105 -0.7122 -0.0821
 2077UDC     C722843  13.494   8.189  17.074 -0.5411 -1.0481 -0.4078
 2077UDC     C822844  13.507   8.161  17.225 -0.1582  1.1483  0.8307
 2077UDC     C922845  13.425   8.238  17.322 -0.2935  0.3693 -1.0511
 2077UDC    C1022846  13.279   8.246  17.276  0.6547 -0.7846 -0.3761
 2077UDC    C1122847  13.201   8.376  17.287 -0.1493 -0.9175 -0.7712
 2078UDC     C122848   3.638   8.956   1.324 -0.2306  0.6762 -0.4956
 2078UDC     C222849   3.513   8.962   1.236  0.4438  0.4299  1.0239
 2078UDC     C322850   3.516   8.882   1.100 -0.6908 -0.9379 -0.7829
 2078UDC     C422851   3.598   8.943   0.984  0.4912 -1.1453  1.2783
 2078UDC     C522852   3.540   8.901   0.842 -0.0309  0.1204  0.3141
 2078UDC     C622853   3.389   8.887   0.812 -0.1570  0.5906  0.5696
 2078UDC     C722854   3.331   8.980   0.708  0.3349 -0.3426 -0.4713
 2078UDC     C822855   3.306   9.127   0.753 -0.1578 -1.3572 -0.4341
 2078UDC     C922856   3.244   9.213   0.639 -0.3077 -0.3707 -0.6504
 2078UDC    C1022857   3.202   9.363   0.657  0.1901 -0.5954 -0.1189
 2078UDC    C1122858   3.123   9.415   0.533  0.3435  0.7345  0.0214
 2079UDC     C122859  19.301  13.761   2.937  0.2013 -0.7461 -0.5152
 2079UDC     C222860  19.244  13.697   2.808  0.7980 -1.3724 -0.9080
 2079UDC     C322861  19.349  13.678   2.696  0.6273 -0.7738  0.4909
 2079UDC     C422862  19.289  13.598   2.582 -0.9619  0.1284 -0.9414
 2079UDC     C522863  19.172  13.656   2.503 -0.0958  0.2076 -0.2455
 2079UDC     C622864  19.238  13.786   2.443  0.1368  0.0203 -0.6523
 2079UDC     C722865  19.129  13.882   2.398  0.8531 -0.2744 -0.0216
 2079UDC     C822866  19.132  14.029   2.433 -0.0340 -0.4785 -0.0261
 2079UDC     C922867  19.216  14.113   2.337 -0.3897  0.2721  0.1523
 2079UDC    C1022868  19.194  14.263   2.314  0.4391  0.7651 -1.2638
 2079UDC    C1122869  19.053  14.294   2.247 -1.0784 -0.4867  0.2551
 2080UDC     C122870  16.234   6.852  17.445 -0.1444 -0.0841  0.0707
 2080UDC     C222871  16.259   6.861  17.293 -0.9302 -0.6368 -0.0071
 2080UDC     C322872  16.143   6.903  17.195  0.5350 -0.2810 -0.4270
 2080UDC     C422873  16.077   7.030  17.257 -0.1480 -0.3478  1.1751
 2080UDC     C522874  16.167   7.153  17.297 -1.3047  0.9148 -0.7665
 2080UDC     C622875  16.239   7.229  17.189 -0.1038 -0.1120 -0.1610
 2080UDC     C722876  16.154   7.293  17.085  0.5234  0.1392 -0.2231
 2080UDC     C822877  16.216   7.423  17.044  1.0858  0.4144  0.7329
 2080UDC     C922878  16.139   7.509  16.942 -0.4758  0.6955 -0.4940
 2080UDC    C1022879  16.220   7.628  16.883 -0.9858 -0.0080 -1.2660
 2080UDC    C1122880  16.262   7.734  16.991  0.0549  0.5299  0.9712
 2081UDC     C122881  12.968  11.873  19.954 -1.3608 -0.0677 -0.3815
 2081UDC     C222882  13.106  11.817  19.996  0.5154 -0.0433 -0.4174
 2081UDC     C322883  13.216  11.905  19.943 -0.2212 -0.9498 -1.4951
 2081UDC     C422884  13.330  11.929  20.041 -0.3123 -0.2943  0.1817
 2081UDC     C522885  13.326  12.050  20.125  0.8097 -0.8096  0.0394
 2081UDC     C622886  13.435  12.103  20.212  0.0707  0.4279  0.2272
 2081UDC     C722887  13.422  12.231  20.288  0.8588  0.2970 -0.1704
 2081UDC     C822888  13.380  12.351  20.204  0.2741  0.8347 -0.4434
 2081UDC     C922889  13.501  12.410  20.129  1.5330  0.2879  0.7153
 2081UDC    C1022890  13.447  12.526  20.049 -0.5349 -0.2974  0.0189
 2081UDC    C1122891  13.356  12.516  19.932  1.1947 -0.5613 -0.1863
 2082UDC     C122892  12.716  14.610   4.002 -0.1141 -0.4959 -0.6355
 2082UDC     C222893  12.638  14.479   4.043  0.0576 -0.1220  0.8004
 2082UDC     C322894  12.540  14.427   3.925  0.1147 -0.7604 -0.1368
 2082UDC     C422895  12.479  14.295   3.988  1.1321 -0.1101  0.2817
 2082UDC     C522896  12.405  14.325   4.120  0.5935  0.4572  0.6871
 2082UDC     C622897  12.277  14.241   4.144  0.3718  0.5311 -0.6422
 2082UDC     C722898  12.236  14.230   4.293  0.0450  0.6072  1.8773
 2082UDC     C822899  12.155  14.344   4.356  0.8998 -0.0324  0.5093
 2082UDC     C922900  12.140  14.361   4.506  0.2441  0.0088 -0.4372
 2082UDC    C1022901  12.023  14.461   4.542 -1.0488 -0.4865 -0.0162
 2082UDC    C1122902  11.880  14.408   4.519 -0.2579 -0.4419  0.5148
 2083UDC     C122903   0.367  17.880  13.043 -0.2285  0.7438 -0.5927
 2083UDC     C222904   0.323  17.939  13.182  0.3367  0.5283  0.9874
 2083UDC     C322905   0.249  18.072  13.186  0.0263  0.1008  1.0959
 2083UDC     C422906   0.112  18.065  13.126  0.0412  1.0312  0.6804
 2083UDC     C522907   0.025  18.193  13.110 -0.3364  0.8268  0.2261
 2083UDC     C622908  -0.079  18.216  13.001  0.0435  0.2768  0.2076
 2083UDC     C722909  -0.020  18.237  12.853  0.2853  0.2992 -0.0713
 2083UDC     C822910  -0.076  18.345  12.773  0.8685 -0.7377  1.3223
 2083UDC     C922911   0.035  18.429  12.702 -0.8963  0.2363  0.1068
 2083UDC    C1022912  -0.012  18.509  12.582  0.7076  0.6719 -1.1678
 2083UDC    C1122913  -0.038  18.427  12.451 -0.6557 -0.0564 -0.4486
 2084UDC     C122914   3.255   0.923   1.799  0.2450  0.8234  0.5749
 2084UDC     C222915   3.331   0.846   1.688 -0.1000  0.0241  0.7229
 2084UDC     C322916   3.386   0.710   1.746  0.6704  0.6398 -0.0846
 2084UDC     C422917   3.442   0.610   1.637  0.4566 -0.2956  0.3392
 2084UDC     C522918   3.533   0.682   1.534 -0.7079  0.4656  0.2853
 2084UDC     C622919   3.671   0.602   1.526 -0.7698  0.3151  0.4845
 2084UDC     C722920   3.756   0.665   1.627 -0.4074  0.7698 -1.5068
 2084UDC     C822921   3.794   0.814   1.638  1.2714  0.2506 -0.7149
 2084UDC     C922922   3.887   0.855   1.527  0.4448 -0.6102  0.1371
 2084UDC    C1022923   3.909   1.006   1.490 -0.2036  0.6353 -0.2123
 2084UDC    C1122924   3.803   1.065   1.402 -0.5781  0.1998 -0.0278
 2085UDC     C122925  15.265  17.880  14.502  0.4709 -0.6928  0.4926
 2085UDC     C222926  15.363  17.858  14.389 -0.3382 -0.1438  0.0814
 2085UDC     C322927  15.493  17.927  14.425 -0.3906 -0.9976 -0.7163
 2085UDC     C422928  15.618  17.861  14.368 -0.1964  0.1274  0.6133
 2085UDC     C522929  15.624  17.704  14.350 -1.1284 -0.5122 -0.5354
 2085UDC     C622930  15.754  17.666  14.276  0.7095  0.5960 -0.7482
 2085UDC     C722931  15.819  17.535  14.336  0.6217  0.4242  0.7825
 2085UDC     C822932  15.936  17.481  14.253 -0.8164  0.0689  0.6880
 2085UDC     C922933  16.067  17.548  14.287  0.3164 -0.4305  0.2059
 2085UDC    C1022934  16.179  17.494  14.202  0.6436  0.6716 -0.7715
 2085UDC    C1122935  16.322  17.512  14.250  0.2761 -0.5376 -0.4072
 2086UDC     C122936  19.343   4.806  16.021 -0.3927 -0.2514 -0.1105
 2086UDC     C222937  19.484   4.813  16.090  0.4105  0.5778  0.6244
 2086UDC     C322938  19.606   4.746  16.031  1.1836 -0.2357 -0.7137
 2086UDC     C422939  19.699   4.684  16.136 -0.9552  0.2009  0.3084
 2086UDC     C522940  19.629   4.575  16.222  0.2598  0.7171 -0.3720
 2086UDC     C622941  19.591   4.444  16.155 -0.1303  0.9740 -0.7123
 2086UDC     C722942  19.666   4.311  16.197 -0.1935 -0.2407 -0.1518
 2086UDC     C822943  19.619   4.180  16.133 -0.2034  0.7561  0.2708
 2086UDC     C922944  19.461   4.190  16.117  0.8104  1.0247 -0.1125
 2086UDC    C1022945  19.383   4.184  16.252  0.3733 -0.3441 -1.2067
 2086UDC    C1122946  19.242   4.143  16.228 -0.2867  0.1933  0.4313
 2087UDC     C122947  17.773   0.026  15.231  0.3907 -0.3720  0.7316
 2087UDC     C222948  17.879  -0.043  15.318  0.3217 -0.3895 -0.5850
 2087UDC     C322949  17.922  -0.174  15.258 -0.2376  0.8484  0.5674
 2087UDC     C422950  18.038  -0.242  15.328 -0.1302  1.0473  0.9835
 2087UDC     C522951  18.009  -0.269  15.477 -0.6879 -0.0307 -1.4698
 2087UDC     C622952  18.141  -0.305  15.564  0.4025 -0.4841 -1.0139
 2087UDC     C722953  18.221  -0.186  15.632  0.4266 -1.0177 -0.4684
 2087UDC     C822954  18.359  -0.222  15.690  0.2643  0.3872  0.3563
 2087UDC     C922955  18.446  -0.110  15.747  0.2553  0.3299 -0.5863
 2087UDC    C1022956  18.592  -0.156  15.777  0.0752 -0.5407  0.5430
 2087UDC    C1122957  18.662  -0.029  15.817 -0.3305 -0.2539 -0.7255
 2088UDC     C122958  15.018   0.439   2.410  0.5799 -0.0712  0.3505
 2088UDC     C222959  15.064   0.570   2.468  0.1246  0.6502 -0.2576
 2088UDC     C322960  15.144   0.561   2.604  0.5267  0.0870  0.7408
 2088UDC     C422961  15.149   0.705   2.662 -0.7348 -0.3134  0.2009
 2088UDC     C522962  15.116   0.707   2.816 -0.3544  0.3576 -0.2512
 2088UDC     C622963  15.005   0.808   2.851  0.5425 -0.1190  1.0541
 2088UDC     C722964  14.948   0.773   2.993  0.3914  0.3997  0.2901
 2088UDC     C822965  14.905   0.874   3.090 -0.1905 -0.0738  0.0682
 2088UDC     C922966  14.830   0.995   3.024 -0.3495 -0.7018  0.6087
 2088UDC    C1022967  14.684   0.971   2.981 -0.7038 -0.5690  0.5959
 2088UDC    C1122968  14.617   1.094   2.922  0.1509 -0.0064  0.3646
 2089UDC     C122969   2.140   2.514   3.261 -0.5420  0.4261 -0.7746
 2089UDC     C222970   2.015   2.477   3.347 -0.1398  0.2197  0.4663
 2089UDC     C322971   1.885   2.523   3.269 -0.3945 -0.2996 -0.3951
 2089UDC     C422972   1.753   2.438   3.288 -0.2121 -0.2057  0.6517
 2089UDC     C522973   1.623   2.491   3.219 -1.1760  0.1586 -0.5804
 2089UDC     C622974   1.511   2.410   3.281  0.5665  1.0698 -0.7457
 2089UDC     C722975   1.383   2.392   3.198  0.7021  0.2319 -0.4773
 2089UDC     C822976   1.307   2.253   3.224  0.4510 -0.9051  1.9688
 2089UDC     C922977   1.166   2.260   3.156  0.3203  0.8497  0.3967
 2089UDC    C1022978   1.067   2.140   3.177  0.1932 -0.3461  0.3070
 2089UDC    C1122979   0.930   2.171   3.112  0.5752 -0.4116 -0.3307
 2090UDC     C122980   7.196  10.586   5.103 -1.1115 -0.6358  0.1584
 2090UDC     C222981   7.220  10.509   4.968  0.9555  0.9637 -0.4052
 2090UDC     C322982   7.086  10.459   4.910  0.3066 -0.9857  0.1283
 2090UDC     C422983   6.979  10.563   4.885 -0.4357 -0.5678  0.1702
 2090UDC     C522984   6.859  10.505   4.802  0.0697  0.1721  0.3718
 2090UDC     C622985   6.755  10.619   4.786 -0.8289  0.9489 -0.2723
 2090UDC     C722986   6.644  10.584   4.686 -0.1944 -0.0587 -0.0241
 2090UDC     C822987   6.677  10.586   4.536  0.9175 -0.4926  1.2020
 2090UDC     C922988   6.545  10.547   4.475  1.3244  0.1583 -0.7447
 2090UDC    C1022989   6.509  10.398   4.465 -0.4125  0.8299  1.7683
 2090UDC    C1122990   6.354  10.379   4.447  0.5350  0.1070  0.2622
 2091UDC     C122991  18.285  18.629   9.230 -0.2160 -0.8066 -1.6136
 2091UDC     C222992  18.162  18.700   9.171 -0.3078 -0.2940 -0.5682
 2091UDC     C322993  18.168  18.712   9.018 -0.4326 -0.5091 -0.0770
 2091UDC     C422994  18.083  18.824   8.959  0.3461 -0.7587 -0.4203
 2091UDC     C522995  18.058  18.825   8.808 -0.8626  0.2439 -0.3616
 2091UDC     C622996  17.973  18.942   8.764 -0.1751  0.1800 -0.5102
 2091UDC     C722997  17.852  18.938   8.858  0.1518  0.3008 -1.1830
 2091UDC     C822998  17.731  18.891   8.771  0.5914 -0.7036  0.4813
 2091UDC     C922999  17.620  18.837   8.854 -0.2461 -0.0217  0.4286
 2091UDC    C1023000  17.548  18.971   8.884 -0.2322  0.1718  1.4156
 2091UDC    C1123001  17.415  18.972   8.963 -0.9243 -0.1601  0.6152
 2092UDC     C123002  14.928  18.010   3.597 -0.3775  0.9324  0.0033
 2092UDC     C223003  14.785  17.960   3.555  0.3927  0.0272 -1.0992
 2092UDC     C323004  14.791  17.890   3.413 -0.7204  0.2192 -0.4984
 2092UDC     C423005  14.869  17.758   3.393  0.6038  0.9216 -0.0316
 2092UDC     C523006  14.803  17.633   3.447 -0.6697  0.4013 -1.1860
 2092UDC     C623007  14.855  17.490   3.410 -0.9647  0.2765 -0.1982
 2092UDC     C723008  14.793  17.351   3.454 -0.2768 -1.4821 -0.1066
 2092UDC     C823009  14.825  17.302   3.595  0.0301 -0.1028 -0.0109
 2092UDC     C923010  14.717  17.226   3.673  0.8550 -0.6342 -0.2996
 2092UDC    C1023011  14.694  17.080   3.625 -0.1491 -0.6889 -0.1430
 2092UDC    C1123012  14.616  17.038   3.499 -0.7070 -1.0650 -0.3803
 2093UDC     C123013  16.287  15.458  19.352  0.4110 -0.5252 -0.9581
 2093UDC     C223014  16.357  15.432  19.483  0.3750 -0.7016  0.5639
 2093UDC     C323015  16.507  15.449  19.502 -0.4573 -0.3272  0.1430
 2093UDC     C423016  16.568  15.423  19.641 -0.1147  0.6272  0.3513
 2093UDC     C523017  16.684  15.515  19.684 -0.7304  0.9121  0.7082
 2093UDC     C623018  16.654  15.590  19.813 -0.3666 -0.3387  0.3503
 2093UDC     C723019  16.768  15.683  19.869  0.1670  0.3571  0.5928
 2093UDC     C823020  16.910  15.649  19.817 -0.4589 -0.3653  0.1492
 2093UDC     C923021  17.001  15.770  19.795  0.4816  0.1962  0.5173
 2093UDC    C1023022  17.006  15.854  19.922 -0.3799 -0.4908 -0.1398
 2093UDC    C1123023  17.074  15.786  20.044 -0.1428  0.1177 -0.1624
 2094UDC     C123024   7.184   7.213   5.221  0.3945 -0.2577  0.1791
 2094UDC     C223025   7.235   7.260   5.364  0.6689 -0.4136  0.5325
 2094UDC     C323026   7.222   7.408   5.383 -0.4411  0.0916 -0.3646
 2094UDC     C423027   7.310   7.492   5.295 -0.1059  1.1498 -0.2463
 2094UDC     C523028   7.336   7.628   5.357 -0.5838 -0.6339  0.5110
 2094UDC     C623029   7.249   7.736   5.298 -0.3723 -0.3646  0.2299
 2094UDC     C723030   7.296   7.880   5.339 -0.2959  0.6038  0.4022
 2094UDC     C823031   7.395   7.931   5.230  0.4147 -0.4103 -0.2152
 2094UDC     C923032   7.426   8.081   5.241  0.4114 -0.4132 -0.8505
 2094UDC    C1023033   7.312   8.179   5.198 -0.0454 -0.2128  1.0399
 2094UDC    C1123034   7.334   8.324   5.147 -0.5846  0.3155  0.2709
 2095UDC     C123035   2.121   1.950   1.853 -0.0837  0.2537 -0.4045
 2095UDC     C223036   2.201   1.934   1.982 -1.0347 -0.0975  0.9048
 2095UDC     C323037   2.211   2.061   2.074  0.1923 -0.3013  0.2664
 2095UDC     C423038   2.301   2.067   2.195 -0.5637 -0.6939 -1.0291
 2095UDC     C523039   2.227   2.143   2.311 -0.3302  0.8121 -0.1490
 2095UDC     C623040   2.318   2.266   2.354 -0.7535  0.3352  0.3489
 2095UDC     C723041   2.460   2.215   2.379 -0.1205  0.0494 -0.3945
 2095UDC     C823042   2.571   2.313   2.374  1.1928 -0.3591  1.0688
 2095UDC     C923043   2.552   2.421   2.482 -0.5662  0.1860  0.6898
 2095UDC    C1023044   2.677   2.507   2.521  0.8793  0.1564 -0.2688
 2095UDC    C1123045   2.755   2.583   2.418 -0.0669  0.4784 -0.9475
 2096UDC     C123046  11.380   0.931   6.363 -0.7847 -0.6864  0.7645
 2096UDC     C223047  11.263   0.837   6.375 -0.3774  0.0848 -0.4112
 2096UDC     C323048  11.170   0.917   6.470 -0.4321 -0.2476  0.4713
 2096UDC     C423049  11.237   0.955   6.612  1.1298 -0.0517 -0.1927
 2096UDC     C523050  11.177   1.079   6.674  0.3752  0.4771 -0.4732
 2096UDC     C623051  11.205   1.209   6.584  0.3278  0.9202 -0.2831
 2096UDC     C723052  11.215   1.334   6.667 -0.2903 -1.0844 -0.4545
 2096UDC     C823053  11.316   1.323   6.775  0.2582  0.3262 -0.5942
 2096UDC     C923054  11.285   1.321   6.932  0.0885 -0.2477 -0.3671
 2096UDC    C1023055  11.410   1.258   6.997  1.0191  0.1834  1.2445
 2096UDC    C1123056  11.404   1.250   7.148  0.7766 -0.7109  0.6002
 2097UDC     C123057  10.361   1.294  16.613  0.8083  0.0444 -0.1293
 2097UDC     C223058  10.278   1.430  16.611  0.5411  1.3503  1.5328
 2097UDC     C323059  10.325   1.530  16.709  0.2312 -0.5771 -0.2956
 2097UDC     C423060  10.225   1.642  16.703  1.2404 -0.4893 -0.2318
 2097UDC     C523061  10.286   1.767  16.771  0.4286 -0.5556 -0.1631
 2097UDC     C623062  10.340   1.770  16.922 -0.0744 -0.5247 -0.6103
 2097UDC     C723063  10.405   1.903  16.971 -1.3166  0.2138 -0.2778
 2097UDC     C823064  10.462   1.891  17.114  0.0896  0.0536 -1.7345
 2097UDC     C923065  10.476   2.021  17.197 -0.2494  0.9408  0.1869
 2097UDC    C1023066  10.531   2.146  17.135 -1.7373 -1.5519 -0.9643
 2097UDC    C1123067  10.480   2.282  17.176  0.3417  1.0016  1.4599
 2098UDC     C123068   4.525  19.791  17.660 -0.4694  0.5104 -0.4935
 2098UDC     C223069   4.391  19.749  17.721  0.2329 -1.1089  0.1773
 2098UDC     C323070   4.366  19.612  17.665 -0.6432  0.1334 -0.0252
 2098UDC     C423071   4.252  19.531  17.734  0.5917  0.0779 -0.7177
 2098UDC     C523072   4.289  19.379  17.702  0.7303 -0.0615 -0.5773
 2098UDC     C623073   4.161  19.301  17.708  0.6323  0.5423  0.8884
 2098UDC     C723074   4.162  19.176  17.805 -0.9616 -0.4421 -0.8874
 2098UDC     C823075   4.025  19.113  17.802 -1.3286 -0.0256  0.6276
 2098UDC     C923076   3.989  19.007  17.915 -0.0973  0.4315 -0.3921
 2098UDC    C1023077   3.841  18.968  17.894 -0.3750  0.6491 -0.5335
 2098UDC    C1123078   3.769  18.859  17.987 -0.2314 -0.0115  0.3206
 2099UDC     C123079   9.473   9.036   4.143 -0.6444 -0.4491  0.6590
 2099UDC     C223080   9.463   9.162   4.231 -1.1140  0.4485 -1.5255
 2099UDC     C323081   9.357   9.142   4.344 -0.9557 -0.1758  0.0329
 2099UDC     C423082   9.325   9.272   4.419  0.6708 -0.3513 -0.6298
 2099UDC     C523083   9.214   9.253   4.534  0.4124 -1.3371  0.9657
 2099UDC     C623084   9.247   9.164   4.662 -0.2749 -1.0923  0.4449
 2099UDC     C723085   9.397   9.188   4.720  0.7292 -0.2526  1.1174
 2099UDC     C823086   9.422   9.321   4.792 -0.0497 -0.2991 -0.3511
 2099UDC     C923087   9.372   9.352   4.940  0.1665  1.4409  0.0381
 2099UDC    C1023088   9.359   9.502   4.962 -0.2949  0.9750  1.2736
 2099UDC    C1123089   9.240   9.561   4.886  0.2340  0.4184  0.7887
 2100UDC     C123090   9.237   0.012  11.211  0.5502 -0.8594  0.8063
 2100UDC     C223091   9.270  -0.138  11.172 -0.2743  0.2844  0.1421
 2100UDC     C323092   9.348  -0.216  11.273 -0.4933  0.0115 -0.8011
 2100UDC     C423093   9.435  -0.142  11.367  0.0649  0.0403  0.2279
 2100UDC     C523094   9.488  -0.229  11.476  0.2223  0.6170  0.7512
 2100UDC     C623095   9.438  -0.198  11.616 -0.7018  1.5121  0.5252
 2100UDC     C723096   9.509  -0.268  11.737  0.9879 -0.1466  0.7514
 2100UDC     C823097   9.590  -0.177  11.828 -0.4889  1.2602  0.2814
 2100UDC     C923098   9.679  -0.267  11.925  1.3336  0.4909  0.3762
 2100UDC    C1023099   9.592  -0.343  12.026  0.1595 -0.5937 -0.5184
 2100UDC    C1123100   9.685  -0.378  12.147 -0.0946 -1.3373  0.5132
 2101UDC     C123101  17.687  13.139   0.104  0.4968  0.7553  0.3768
 2101UDC     C223102  17.570  13.096   0.194 -1.0297 -0.1872  0.0552
 2101UDC     C323103  17.491  12.968   0.158 -0.3256  0.1153 -0.2043
 2101UDC     C423104  17.355  12.955   0.228 -0.1163  0.3581 -0.0504
 2101UDC     C523105  17.256  13.069   0.199  0.4136 -0.2579  0.2419
 2101UDC     C623106  17.117  13.050   0.253 -0.0803  0.3560  0.1311
 2101UDC     C723107  17.003  13.124   0.199  0.9737 -0.2392  0.2143
 2101UDC     C823108  16.886  13.029   0.245 -0.1152 -0.4068  0.8140
 2101UDC     C923109  16.758  13.101   0.274  0.0956  0.2887 -0.2994
 2101UDC    C1023110  16.762  13.252   0.230  0.0035 -0.2227 -0.7118
 2101UDC    C1123111  16.631  13.311   0.172  0.1537  0.6586 -0.7059
 2102UDC     C123112  13.260  17.047  16.624  0.1081 -0.5714  0.9997
 2102UDC     C223113  13.121  17.065  16.564 -0.6103 -0.4915 -0.1708
 2102UDC     C323114  13.097  17.037  16.413 -0.1884 -0.4574 -0.7069
 2102UDC     C423115  12.963  17.075  16.350  1.0506 -0.5051 -0.2586
 2102UDC     C523116  12.947  17.224  16.351  0.2154 -0.5359  0.7611
 2102UDC     C623117  12.821  17.261  16.275  0.2185 -0.0385  0.4630
 2102UDC     C723118  12.772  17.409  16.308 -0.3777  0.6491  0.3324
 2102UDC     C823119  12.691  17.458  16.192 -0.0615 -0.6350 -0.0134
 2102UDC     C923120  12.640  17.594  16.223  0.1473 -0.1147 -0.2114
 2102UDC    C1023121  12.566  17.623  16.358  0.4776 -0.8422 -0.0251
 2102UDC    C1123122  12.430  17.544  16.378 -0.8096 -0.5206  0.4942
 2103UDC     C123123  17.195  19.539   7.648 -0.0640 -0.4930 -0.5669
 2103UDC     C223124  17.320  19.531   7.730  0.2738  0.3297 -1.0869
 2103UDC     C323125  17.329  19.618   7.850 -0.6275  0.7241  0.6604
 2103UDC     C423126  17.465  19.616   7.919 -0.6698  0.6635  0.0839
 2103UDC     C523127  17.544  19.477   7.925  0.3791  0.2338  0.0855
 2103UDC     C623128  17.685  19.490   7.991  0.6292  0.2322 -0.5191
 2103UDC     C723129  17.806  19.430   7.925 -0.3362  0.6997  0.5378
 2103UDC     C823130  17.912  19.356   8.015 -1.4761 -0.3924 -0.2649
 2103UDC     C923131  18.026  19.293   7.941 -1.0618  1.4895 -0.3704
 2103UDC    C1023132  18.160  19.255   8.010  0.2745 -0.1137  0.1482
 2103UDC    C1123133  18.297  19.298   7.963  0.0178  0.5279 -0.8767
 2104UDC     C123134   8.651   4.797  17.107  0.2142 -0.3814  0.9780
 2104UDC     C223135   8.741   4.674  17.107  1.0189 -0.0214  0.3589
 2104UDC     C323136   8.841   4.628  17.221  1.3709 -0.0722  1.2631
 2104UDC     C423137   8.850   4.718  17.340  0.2054 -0.2243 -1.2005
 2104UDC     C523138   8.950   4.834  17.359 -0.9238  0.1485  0.5710
 2104UDC     C623139   8.922   4.901  17.496 -0.4203 -0.2252  0.4560
 2104UDC     C723140   9.019   5.012  17.533  0.0846  0.6284 -0.7946
 2104UDC     C823141   8.988   5.075  17.671  0.1391  0.5582 -0.6686
 2104UDC     C923142   8.846   5.065  17.726  0.3369  0.3366  0.4395
 2104UDC    C1023143   8.765   5.191  17.724 -0.0415  0.2437 -0.2388
 2104UDC    C1123144   8.623   5.142  17.751  0.1854  0.7805 -0.3108
 2105UDC     C123145   7.877   0.874  17.447  0.5562  0.2485 -0.5419
 2105UDC     C223146   7.936   0.988  17.527 -0.1178  0.2610  0.2571
 2105UDC     C323147   8.087   0.997  17.570 -0.0633 -0.0499  0.1701
 2105UDC     C423148   8.131   1.120  17.649 -0.0788  0.1812 -0.5069
 2105UDC     C523149   8.267   1.184  17.597  0.1415 -0.2683  0.0878
 2105UDC     C623150   8.380   1.083  17.606 -0.6300 -0.1914  0.6676
 2105UDC     C723151   8.520   1.112  17.541  0.1291  0.2211 -0.4135
 2105UDC     C823152   8.592   0.976  17.554  0.0344 -0.2696  0.0819
 2105UDC     C923153   8.658   0.957  17.690 -0.8050  0.5479  0.5689
 2105UDC    C1023154   8.764   0.834  17.690  0.9355  0.8647 -0.0555
 2105UDC    C1123155   8.806   0.813  17.544  0.2266  0.0379  0.2385
 2106UDC     C123156  14.882   8.502  19.542  0.5524  1.4534 -0.4930
 2106UDC     C223157  14.752   8.416  19.567 -0.4457  0.6866  0.1620
 2106UDC     C323158  14.760   8.365  19.709  0.0465 -0.0498  0.3802
 2106UDC     C423159  14.677   8.451  19.812 -0.4377 -1.1262 -0.0758
 2106UDC     C523160  14.524   8.465  19.772 -0.4362  0.3670 -0.2027
 2106UDC     C623161  14.449   8.546  19.875  0.0549 -0.7241  0.3231
 2106UDC     C723162  14.468   8.522  20.026 -0.5002  1.1772  0.7441
 2106UDC     C823163  14.350   8.586  20.097 -0.2109  0.4910  0.7591
 2106UDC     C923164  14.350   8.539  20.246 -0.4854  0.1947 -0.5525
 2106UDC    C1023165  14.350   8.383  20.272 -1.0769 -0.5150 -0.0897
 2106UDC    C1123166  14.495   8.311  20.300 -0.3126 -0.0586 -0.0463
 2107UDC     C123167   0.063   0.739  17.141 -1.3400  0.6400  0.2282
 2107UDC     C223168   0.005   0.602  17.098 -0.0926 -0.0958  0.4964
 2107UDC     C323169  -0.058   0.534  17.216  0.5599  0.4839  1.0025
 2107UDC     C423170  -0.192   0.567  17.280  0.7325 -0.2023 -0.0738
 2107UDC     C523171  -0.311   0.620  17.200  0.4257  0.4199 -1.3991
 2107UDC     C623172  -0.430   0.635  17.299  0.0354 -0.0178 -0.5956
 2107UDC     C723173  -0.400   0.741  17.408 -0.2797  0.1541 -0.9144
 2107UDC     C823174  -0.527   0.786  17.491  0.5737  0.4373  0.2995
 2107UDC     C923175  -0.554   0.923  17.562 -0.2541 -0.9937  0.2980
 2107UDC    C1023176  -0.458   0.928  17.680  0.5282  0.5068 -0.7015
 2107UDC    C1123177  -0.521   1.025  17.777  0.4431  0.1523 -0.1884
 2108UDC     C123178  10.907   3.151  12.537  0.0030  0.4457  0.7092
 2108UDC     C223179  10.877   3.006  12.497  0.6172  0.9854  0.4958
 2108UDC     C323180  10.750   2.952  12.561  0.5049 -0.7752  0.3982
 2108UDC     C423181  10.715   2.805  12.536  0.8555 -0.2438  0.0567
 2108UDC     C523182  10.818   2.702  12.587 -0.5620 -0.1140  0.7981
 2108UDC     C623183  10.792   2.567  12.514  0.1648 -0.0690 -0.2055
 2108UDC     C723184  10.818   2.444  12.600  0.1726  0.3057 -0.8715
 2108UDC     C823185  10.700   2.400  12.689  0.3549  0.1950  0.2523
 2108UDC     C923186  10.740   2.264  12.750  0.2691 -1.0032  0.0319
 2108UDC    C1023187  10.621   2.233  12.832  0.1588  0.0746  0.1646
 2108UDC    C1123188  10.646   2.190  12.978  0.0332 -0.1252 -0.5909
 2109UDC     C123189   1.360  15.123  16.820 -0.0019 -0.0707  0.1505
 2109UDC     C223190   1.332  15.149  16.673 -1.0447  0.6774  0.4170
 2109UDC     C323191   1.299  15.296  16.644  0.4058  1.0489 -0.0211
 2109UDC     C423192   1.225  15.302  16.517  0.7247  0.2623  0.6545
 2109UDC     C523193   1.208  15.442  16.468 -0.0792 -0.1309  0.4260
 2109UDC     C623194   1.131  15.536  16.560 -0.2374 -0.2949 -0.1162
 2109UDC     C723195   1.169  15.685  16.575 -0.6751 -0.3663  1.0384
 2109UDC     C823196   1.064  15.759  16.658  1.1279  0.5353 -0.3198
 2109UDC     C923197   1.033  15.669  16.791  1.6038  0.3327 -0.7834
 2109UDC    C1023198   1.142  15.681  16.892  0.9024  0.4954 -0.6138
 2109UDC    C1123199   1.195  15.552  16.962 -0.2634  0.8091  0.1760
 2110UDC     C123200   1.965  10.487   0.528  0.5329 -0.2559  0.6925
 2110UDC     C223201   1.921  10.545   0.664 -0.1970  0.3029  0.2877
 2110UDC     C323202   1.835  10.673   0.642  0.3261  0.4149 -0.7968
 2110UDC     C423203   1.690  10.623   0.590 -0.4036 -0.7133  0.7765
 2110UDC     C523204   1.627  10.707   0.472  0.5476  0.4378  0.1202
 2110UDC     C623205   1.486  10.658   0.437 -0.3359 -1.0074 -0.4381
 2110UDC     C723206   1.382  10.730   0.341 -0.2891 -0.1347 -0.3179
 2110UDC     C823207   1.433  10.749   0.196 -1.2135 -0.6804  0.5375
 2110UDC     C923208   1.364  10.843   0.093  0.4641 -1.0687 -1.0486
 2110UDC    C1023209   1.223  10.801   0.071 -0.3585  0.9314  0.2909
 2110UDC    C1123210   1.133  10.913   0.037  0.8793 -0.0463 -0.5195
 2111UDC     C123211   1.406   9.242  14.359 -0.1666 -0.6022 -0.0990
 2111UDC     C223212   1.502   9.302  14.254  0.2128  0.3509 -0.4227
 2111UDC     C323213   1.431   9.286  14.123  0.3432 -0.2249  0.7251
 2111UDC     C423214   1.535   9.319  14.008  0.4943 -0.6846  0.6935
 2111UDC     C523215   1.481   9.320  13.859 -0.9097  1.7914 -0.4804
 2111UDC     C623216   1.571   9.352  13.747 -0.5977 -0.5510 -1.1693
 2111UDC     C723217   1.501   9.452  13.658  0.1486  0.4517  0.1743
 2111UDC     C823218   1.594   9.522  13.549 -0.2648 -1.4772  0.0373
 2111UDC     C923219   1.715   9.585  13.618  0.3811 -0.2465  0.3271
 2111UDC    C1023220   1.696   9.720  13.683  0.5025  0.0291 -0.0842
 2111UDC    C1123221   1.647   9.824  13.586  1.2740  0.3488 -0.1226
 2112UDC     C123222   0.181   4.829   5.834 -0.2767  0.1444 -0.6310
 2112UDC     C223223   0.206   4.817   5.681  0.8045  0.7239 -0.2622
 2112UDC     C323224   0.097   4.882   5.593 -1.0377  0.1509 -0.1527
 2112UDC     C423225  -0.049   4.866   5.639  0.5279  0.5272 -0.6577
 2112UDC     C523226  -0.121   4.991   5.587  1.0915 -0.7217 -0.1327
 2112UDC     C623227  -0.153   4.986   5.441 -0.2925  0.9825  0.0123
 2112UDC     C723228  -0.259   5.093   5.409 -0.5092  0.4861  0.2547
 2112UDC     C823229  -0.367   5.024   5.320  1.0201 -0.1584  0.3496
 2112UDC     C923230  -0.316   4.969   5.185  0.0469  0.2689  0.2541
 2112UDC    C1023231  -0.415   4.865   5.135  0.6318  0.3729 -0.2454
 2112UDC    C1123232  -0.534   4.926   5.051  0.0323 -0.2955  0.4978
 2113UDC     C123233  17.949   0.463   4.494  0.5469  0.4911 -0.6277
 2113UDC     C223234  17.929   0.609   4.517 -0.3313 -0.2020 -0.0959
 2113UDC     C323235  18.009   0.702   4.426  0.8674  0.3360  0.9187
 2113UDC     C423236  17.990   0.860   4.421 -0.3247  0.5945 -0.7344
 2113UDC     C523237  18.122   0.940   4.437 -0.0706 -0.1516 -1.3838
 2113UDC     C623238  18.171   0.927   4.586  0.7948  0.9232 -0.3860
 2113UDC     C723239  18.324   0.939   4.605  0.5182 -0.4105 -1.5811
 2113UDC     C823240  18.384   0.985   4.740  1.0317  0.9881 -0.1575
 2113UDC     C923241  18.537   1.002   4.736  0.5732 -0.4205  0.4047
 2113UDC    C1023242  18.601   0.861   4.715 -0.7843 -0.3178 -0.2989
 2113UDC    C1123243  18.751   0.868   4.685 -0.2977 -0.2952  0.2137
 2114UDC     C123244  10.250  15.591  19.298  0.1800  0.4467 -0.2939
 2114UDC     C223245  10.392  15.548  19.322  0.1902 -0.4538  0.1937
 2114UDC     C323246  10.397  15.450  19.447  0.1095 -0.3304  0.6671
 2114UDC     C423247  10.355  15.509  19.578  0.7443 -0.2605 -0.2315
 2114UDC     C523248  10.337  15.383  19.671 -0.2111 -0.7364 -0.2276
 2114UDC     C623249  10.477  15.331  19.721 -0.3263  0.1723  0.5858
 2114UDC     C723250  10.470  15.251  19.851 -0.5808 -0.4835 -0.3167
 2114UDC     C823251  10.406  15.109  19.838 -0.1239 -0.3519  0.7774
 2114UDC     C923252  10.383  15.061  19.983  1.1930  0.8160  0.6864
 2114UDC    C1023253  10.302  14.933  19.987  0.2601 -0.5014  0.0751
 2114UDC    C1123254  10.347  14.833  20.098 -0.0663  0.6304 -0.1512
 2115UDC     C123255   3.193  13.944  17.364  1.3946  0.1356  0.1584
 2115UDC     C223256   3.272  13.968  17.236  0.2978 -0.0102  1.1819
 2115UDC     C323257   3.233  13.889  17.112  0.3770 -0.1206 -0.6852
 2115UDC     C423258   3.336  13.909  17.001 -0.0433 -0.4355  0.3599
 2115UDC     C523259   3.301  13.797  16.901 -0.0248 -1.5119 -0.4448
 2115UDC     C623260   3.340  13.819  16.750 -0.0367 -0.0177 -0.1963
 2115UDC     C723261   3.482  13.799  16.704  1.4129 -0.5977 -0.4060
 2115UDC     C823262   3.578  13.911  16.758  0.5898  0.0899  0.2255
 2115UDC     C923263   3.697  13.956  16.662  1.0423 -0.6796  0.2872
 2115UDC    C1023264   3.655  14.047  16.537  0.0770 -0.3078 -0.7624
 2115UDC    C1123265   3.778  14.078  16.446  0.2900 -1.5810 -0.5881
 2116UDC     C123266  13.348  19.760  13.410 -0.7727  0.1882  1.3398
 2116UDC     C223267  13.290  19.692  13.536  1.3741 -0.1343  1.2078
 2116UDC     C323268  13.316  19.543  13.557  0.7978 -0.2813 -0.5504
 2116UDC     C423269  13.215  19.462  13.640  0.4817  0.7294  0.2279
 2116UDC     C523270  13.252  19.309  13.658 -0.9489  0.1490  0.4568
 2116UDC     C623271  13.154  19.245  13.761 -0.5663 -0.2560  0.5795
 2116UDC     C723272  13.006  19.261  13.730 -0.0837 -0.0653  0.5674
 2116UDC     C823273  12.912  19.234  13.854  0.1536 -0.6609  0.6279
 2116UDC     C923274  12.889  19.095  13.917 -0.5230  0.2013  0.5808
 2116UDC    C1023275  12.783  19.062  14.022 -0.3073  0.7100  0.2435
 2116UDC    C1123276  12.782  19.154  14.148  0.6201 -0.4453 -0.2768
 2117UDC     C123277   2.624  17.010  14.899  0.8805  0.6064  0.2253
 2117UDC     C223278   2.757  16.986  14.961 -0.6474  0.0705  0.4787
 2117UDC     C323279   2.851  17.111  14.978  0.4420  0.0696 -0.1702
 2117UDC     C423280   2.906  17.169  14.846  0.4679  1.0712 -0.5277
 2117UDC     C523281   2.993  17.287  14.860 -0.6069 -0.0612  0.3834
 2117UDC     C623282   3.126  17.237  14.795  0.9360 -0.0705 -0.0765
 2117UDC     C723283   3.218  17.356  14.775 -0.8554 -0.2250  0.2177
 2117UDC     C823284   3.333  17.350  14.670 -0.3850 -0.1917 -0.7257
 2117UDC     C923285   3.397  17.485  14.653 -0.2070  0.0203 -0.2333
 2117UDC    C1023286   3.531  17.492  14.576 -0.1403 -0.1787  0.0523
 2117UDC    C1123287   3.547  17.626  14.506  0.1320 -0.1131  0.1812
 2118UDC     C123288   1.804   9.188  11.864  0.0304  0.7854 -0.5302
 2118UDC     C223289   1.851   9.282  11.973 -1.0852 -0.2181 -0.3425
 2118UDC     C323290   2.002   9.315  11.964  1.4958  0.1926 -0.4950
 2118UDC     C423291   2.075   9.429  11.880  0.1886  0.4041 -1.0531
 2118UDC     C523292   2.229   9.416  11.898 -0.5586  0.3622  1.3510
 2118UDC     C623293   2.322   9.523  11.840  0.1247  0.3255  0.8177
 2118UDC     C723294   2.453   9.477  11.907  0.3944  0.5682  0.7059
 2118UDC     C823295   2.586   9.538  11.871 -0.4396  0.3316  0.0505
 2118UDC     C923296   2.688   9.447  11.930 -0.1859  0.0122 -0.5969
 2118UDC    C1023297   2.770   9.352  11.837 -0.4761 -0.5583  0.5168
 2118UDC    C1123298   2.677   9.283  11.732  0.9550 -1.3067 -0.2619
 2119UDC     C123299   9.136  12.859  10.620 -0.0035 -0.2172 -0.0410
 2119UDC     C223300   9.228  12.770  10.535 -0.1052 -0.9022  0.3346
 2119UDC     C323301   9.298  12.828  10.408 -0.1166 -0.3537  0.3728
 2119UDC     C423302   9.404  12.927  10.459 -0.2077 -0.4241 -0.6447
 2119UDC     C523303   9.489  12.971  10.344  0.1605  0.6033 -0.1142
 2119UDC     C623304   9.422  13.054  10.233 -0.2564 -0.7631  0.3741
 2119UDC     C723305   9.358  13.190  10.242  1.1853 -0.4868  1.6736
 2119UDC     C823306   9.273  13.244  10.123  0.3168  0.8123  0.6440
 2119UDC     C923307   9.356  13.296  10.003 -0.2195  0.6301  0.1001
 2119UDC    C1023308   9.285  13.323   9.866  0.2307  0.2409 -0.0485
 2119UDC    C1123309   9.210  13.209   9.793  0.0937 -0.0289 -0.8242
 2120UDC     C123310   1.637   1.349   5.674 -1.5403 -0.0034 -0.0705
 2120UDC     C223311   1.601   1.337   5.824  0.7391 -0.3707 -0.1533
 2120UDC     C323312   1.633   1.451   5.918  0.0833  0.0425 -0.6613
 2120UDC     C423313   1.609   1.428   6.069  0.1411 -0.7521 -0.0949
 2120UDC     C523314   1.753   1.414   6.131 -0.6787  0.0324  0.3622
 2120UDC     C623315   1.862   1.528   6.142  0.6192 -0.0081  0.9076
 2120UDC     C723316   2.002   1.479   6.184  0.0687  0.4351 -0.3753
 2120UDC     C823317   2.063   1.390   6.073 -0.3853 -1.1809  0.5004
 2120UDC     C923318   2.096   1.463   5.941  0.0739 -1.2070  1.0036
 2120UDC    C1023319   2.158   1.358   5.847 -0.4137 -1.1709 -0.4764
 2120UDC    C1123320   2.238   1.406   5.728  0.0305  0.8909 -0.0524
 2121UDC     C123321  18.017  10.118  19.752  1.1582  0.5285  0.2292
 2121UDC     C223322  18.026  10.022  19.629  0.1207  0.1479  0.2773
 2121UDC     C323323  17.915   9.918  19.618  0.2433 -0.4586 -0.4332
 2121UDC     C423324  17.958   9.807  19.525 -1.1156 -0.2282 -2.4703
 2121UDC     C523325  18.084   9.725  19.561 -0.0138 -0.0301 -0.5866
 2121UDC     C623326  18.071   9.651  19.695 -1.0587  0.6005 -0.2066
 2121UDC     C723327  17.941   9.569  19.716  0.5120 -0.8848 -0.1890
 2121UDC     C823328  17.944   9.483  19.842  0.2966 -0.0946 -0.9301
 2121UDC     C923329  17.978   9.334  19.824 -0.5270 -0.4073  0.6655
 2121UDC    C1023330  17.938   9.257  19.946  1.2543  0.4414  0.3416
 2121UDC    C1123331  17.998   9.116  19.947 -0.2518 -0.0299 -0.1934
 2122UDC     C123332  15.265   7.828  10.272  1.6125  0.6001 -0.2071
 2122UDC     C223333  15.173   7.944  10.285 -0.8293 -0.5369 -0.7465
 2122UDC     C323334  15.200   8.076  10.201  0.4812 -0.0739  0.6242
 2122UDC     C423335  15.193   8.053  10.043  1.2225 -0.2094  0.4945
 2122UDC     C523336  15.249   8.158   9.951 -0.1712 -0.4962  0.6605
 2122UDC     C623337  15.278   8.087   9.812  0.7819 -0.5647 -0.6038
 2122UDC     C723338  15.140   8.056   9.751 -0.0021 -0.3100  0.5726
 2122UDC     C823339  15.119   8.028   9.599 -0.1481 -0.1104 -0.5980
 2122UDC     C923340  14.977   8.051   9.539  0.2894  0.7865 -0.2094
 2122UDC    C1023341  14.946   7.927   9.448 -0.5002 -0.5224  0.6120
 2122UDC    C1123342  15.049   7.932   9.337 -0.1388  0.0313 -0.6993
 2123UDC     C123343   1.530   8.432   0.611 -1.0123 -0.4826  0.7226
 2123UDC     C223344   1.538   8.530   0.720  0.3150  1.2483 -0.3581
 2123UDC     C323345   1.660   8.613   0.670 -0.1629  0.8394 -0.0425
 2123UDC     C423346   1.671   8.755   0.716 -1.1512  0.1202 -0.2042
 2123UDC     C523347   1.598   8.799   0.837  0.6018 -0.6476 -0.5835
 2123UDC     C623348   1.631   8.948   0.855  0.3283 -0.0582 -0.0581
 2123UDC     C723349   1.525   8.997   0.961 -0.3796  0.3663  0.0022
 2123UDC     C823350   1.391   9.025   0.889 -0.7915 -0.7224 -0.3879
 2123UDC     C923351   1.273   8.961   0.955 -0.0704  0.6201 -0.7100
 2123UDC    C1023352   1.127   9.006   0.907  0.5459 -0.7587  0.7978
 2123UDC    C1123353   1.009   8.942   0.993 -0.1798  0.0832  0.2806
 2124UDC     C123354  12.318  11.903  19.851  0.2717 -0.2576 -0.8987
 2124UDC     C223355  12.318  11.904  19.700  0.0383  1.0101  0.3889
 2124UDC     C323356  12.392  11.778  19.634  0.1442 -0.5661  1.0819
 2124UDC     C423357  12.548  11.788  19.663  0.3665 -0.1207  0.8092
 2124UDC     C523358  12.655  11.729  19.566  0.2067  0.9185 -0.5904
 2124UDC     C623359  12.652  11.811  19.430  0.4928  0.6651 -0.2962
 2124UDC     C723360  12.745  11.744  19.331  0.3374 -0.2249 -0.4020
 2124UDC     C823361  12.770  11.844  19.217  0.0867 -0.4425 -0.9248
 2124UDC     C923362  12.852  11.802  19.094  0.6149 -0.2554 -0.0603
 2124UDC    C1023363  12.914  11.910  19.002 -1.0348 -0.0640  0.6738
 2124UDC    C1123364  12.810  12.002  18.928 -0.3079 -0.2263  0.3753
 2125UDC     C123365   0.278  17.109  16.897 -0.3933  0.1325 -0.4190
 2125UDC     C223366   0.243  17.264  16.903 -1.2037  0.9743  0.4748
 2125UDC     C323367   0.290  17.329  16.775 -0.9309 -0.1412  0.2240
 2125UDC     C423368   0.250  17.484  16.773 -0.2189  1.5592  0.1664
 2125UDC     C523369   0.353  17.556  16.684  0.6508 -0.0834 -0.0384
 2125UDC     C623370   0.323  17.702  16.687  0.3199  0.0754 -0.9333
 2125UDC     C723371   0.430  17.782  16.613  0.6166 -0.4427  0.3762
 2125UDC     C823372   0.442  17.719  16.475  0.6105 -0.8580 -0.2319
 2125UDC     C923373   0.521  17.804  16.382  0.3184 -0.3134 -1.0087
 2125UDC    C1023374   0.543  17.753  16.243  0.0176 -0.1912 -0.4120
 2125UDC    C1123375   0.620  17.622  16.232 -0.1582  1.4051 -0.8487
 2126UDC     C123376  12.669   0.694   3.584 -0.2565  0.6375 -0.7079
 2126UDC     C223377  12.793   0.702   3.679  0.1526 -0.5283  0.0581
 2126UDC     C323378  12.913   0.619   3.610  1.1329 -0.4701  0.1023
 2126UDC     C423379  13.050   0.655   3.661  0.2753 -0.7856  0.4760
 2126UDC     C523380  13.056   0.720   3.809 -0.9137  0.0745 -0.8327
 2126UDC     C623381  13.201   0.741   3.868  0.5788  0.5099 -1.5973
 2126UDC     C723382  13.286   0.620   3.923 -0.3801 -0.4750 -1.0405
 2126UDC     C823383  13.430   0.662   3.962 -0.0491 -0.4564  0.8405
 2126UDC     C923384  13.468   0.805   3.943 -0.0244 -0.4738 -0.3520
 2126UDC    C1023385  13.557   0.873   4.054 -0.5127  0.1685  1.3297
 2126UDC    C1123386  13.569   1.028   4.037 -1.1333 -0.0770 -0.2279
 2127UDC     C123387  15.027   6.044  10.139 -0.1980 -0.1145  0.1570
 2127UDC     C223388  15.044   5.890  10.121  0.1361 -0.6941  0.0018
 2127UDC     C323389  15.188   5.856  10.090 -0.8288 -0.7875  0.3145
 2127UDC     C423390  15.252   5.951   9.984  0.1764  0.5095  0.1710
 2127UDC     C523391  15.208   5.908   9.844  0.0675 -0.2972  0.4375
 2127UDC     C623392  15.270   5.973   9.722 -1.2094 -0.9047  0.2638
 2127UDC     C723393  15.409   5.957   9.667  0.7527 -0.2523  0.6546
 2127UDC     C823394  15.467   6.065   9.570 -0.1520 -0.2107  0.3018
 2127UDC     C923395  15.610   6.034   9.531  0.1887 -0.0607  0.4293
 2127UDC    C1023396  15.705   6.148   9.551 -1.7489 -0.5339 -0.3027
 2127UDC    C1123397  15.847   6.137   9.491  1.1508 -0.7374 -0.4843
 2128UDC     C123398  19.088  11.030  17.510  0.5032 -0.9549  0.3513
 2128UDC     C223399  19.054  11.169  17.461  0.5861 -0.1493 -0.2734
 2128UDC     C323400  19.182  11.256  17.427  0.6532  0.6317 -1.5350
 2128UDC     C423401  19.274  11.205  17.325 -0.1205  0.2870 -0.2542
 2128UDC     C523402  19.429  11.197  17.342  0.1534 -0.6218 -1.0355
 2128UDC     C623403  19.513  11.190  17.473  0.1764 -0.2148  0.7896
 2128UDC     C723404  19.660  11.226  17.491  0.3708  1.7064 -0.9584
 2128UDC     C823405  19.709  11.225  17.637 -0.2456  0.4667  0.4917
 2128UDC     C923406  19.846  11.288  17.666  0.3933 -0.0026 -0.1146
 2128UDC    C1023407  19.967  11.190  17.653 -0.9406  0.3724 -0.2696
 2128UDC    C1123408  20.094  11.259  17.705 -0.4137 -0.0251 -0.5400
 2129UDC     C123409   3.262  13.789   2.097  0.4141 -0.3517 -0.1295
 2129UDC     C223410   3.216  13.769   1.948 -0.3068 -1.0484 -0.4228
 2129UDC     C323411   3.253  13.639   1.873 -0.0099  0.7232  0.2868
 2129UDC     C423412   3.383  13.572   1.914 -1.1184 -0.3661  0.2629
 2129UDC     C523413   3.516  13.623   1.868 -2.0361  0.7353  0.1546
 2129UDC     C623414   3.507  13.603   1.713  0.8330  0.2341 -0.2121
 2129UDC     C723415   3.547  13.461   1.674  0.5117 -0.0792  0.0364
 2129UDC     C823416   3.429  13.380   1.609  0.4783  0.4357  0.7885
 2129UDC     C923417   3.427  13.434   1.466 -0.1667 -0.2389  1.1195
 2129UDC    C1023418   3.318  13.396   1.371  0.0773  1.0509  0.0113
 2129UDC    C1123419   3.356  13.426   1.231 -0.0475  0.2999  0.7514
 2130UDC     C123420  17.991  17.486  15.930 -0.4804 -0.6754  0.7253
 2130UDC     C223421  18.032  17.341  15.896  0.4210  0.7439  0.5395
 2130UDC     C323422  18.173  17.327  15.854 -0.1820 -0.3895 -0.2542
 2130UDC     C423423  18.268  17.377  15.964  0.4052 -1.3966 -0.1589
 2130UDC     C523424  18.405  17.425  15.909 -0.5673  0.3930 -0.1784
 2130UDC     C623425  18.508  17.437  16.022 -0.3056 -0.4680  0.2165
 2130UDC     C723426  18.494  17.562  16.106 -0.2753  0.2479 -0.2795
 2130UDC     C823427  18.361  17.598  16.181  0.6639 -0.1089 -0.0057
 2130UDC     C923428  18.354  17.749  16.159 -0.0393  0.2176  0.8302
 2130UDC    C1023429  18.218  17.809  16.200  0.4414  0.2131  0.9366
 2130UDC    C1123430  18.182  17.946  16.128  1.6071 -0.1527  1.4622
 2131UDC     C123431   0.477   4.565   9.753  0.6046 -0.1996  0.6715
 2131UDC     C223432   0.517   4.639   9.619  0.2834 -1.4247 -1.3158
 2131UDC     C323433   0.649   4.578   9.571 -0.6112  0.1296  0.8122
 2131UDC     C423434   0.610   4.457   9.481 -0.3122 -0.6923 -1.2714
 2131UDC     C523435   0.529   4.509   9.358  0.1267  0.5085 -0.9842
 2131UDC     C623436   0.592   4.565   9.233 -0.4974  0.7474  0.3471
 2131UDC     C723437   0.638   4.435   9.153  0.1914 -0.4483 -0.1535
 2131UDC     C823438   0.688   4.445   9.011  0.5419  0.5145  0.2945
 2131UDC     C923439   0.585   4.500   8.903 -0.0656 -0.4974 -0.5154
 2131UDC    C1023440   0.614   4.463   8.757  0.2668  0.4035  1.0570
 2131UDC    C1123441   0.623   4.316   8.723  1.0821  0.8489  0.2995
 2132UDC     C123442  11.492  18.742   7.698  0.3413  0.2588  0.4426
 2132UDC     C223443  11.547  18.780   7.838  0.3750  0.9726 -1.1725
 2132UDC     C323444  11.649  18.900   7.835 -0.0492 -0.0629  0.1389
 2132UDC     C423445  11.770  18.895   7.744  0.1136  1.1877  0.1473
 2132UDC     C523446  11.878  19.001   7.729  1.7877 -0.3832 -0.3036
 2132UDC     C623447  11.949  19.058   7.850 -0.3713 -0.6139  0.1544
 2132UDC     C723448  12.058  19.163   7.834 -0.6040  1.2271 -0.2978
 2132UDC     C823449  12.137  19.188   7.965  0.3900 -0.0967  0.0701
 2132UDC     C923450  12.251  19.286   7.914  0.4922  0.8474 -0.7784
 2132UDC    C1023451  12.342  19.231   7.792 -0.2957  0.0705 -0.1066
 2132UDC    C1123452  12.423  19.326   7.710 -0.5363 -0.7921  0.3549
 2133UDC     C123453   5.320   4.606   8.169 -0.6025  0.3697  1.0388
 2133UDC     C223454   5.453   4.580   8.238 -0.2207 -1.4175  0.0214
 2133UDC     C323455   5.545   4.473   8.185  0.2795 -0.2571  0.3315
 2133UDC     C423456   5.469   4.346   8.160 -0.3968  0.2822 -0.0085
 2133UDC     C523457   5.553   4.237   8.093  1.1030  0.0135 -0.0153
 2133UDC     C623458   5.474   4.112   8.042  0.3376 -1.3325  0.8135
 2133UDC     C723459   5.488   4.043   7.903 -0.1106  0.1118  1.2311
 2133UDC     C823460   5.622   3.976   7.886  0.0889  1.0792 -0.3957
 2133UDC     C923461   5.674   3.909   7.754  1.0317 -0.3156 -0.1495
 2133UDC    C1023462   5.812   3.843   7.759  0.3249 -0.6659 -0.5458
 2133UDC    C1123463   5.842   3.719   7.851 -0.3877  0.4375 -1.1621
 2134UDC     C123464   7.488  12.073  14.097 -0.1782  0.1121  0.0041
 2134UDC     C223465   7.356  12.086  14.017 -0.2314  0.0095  0.2008
 2134UDC     C323466   7.220  12.067  14.089  0.0702 -0.2846  0.1816
 2134UDC     C423467   7.143  11.973  13.994  0.2428  0.6839 -0.4141
 2134UDC     C523468   7.160  12.009  13.847  0.4628  0.0816  0.9736
 2134UDC     C623469   7.118  11.910  13.732  0.7549  0.4790  0.2229
 2134UDC     C723470   7.236  11.855  13.661 -0.3863 -0.1007  0.6355
 2134UDC     C823471   7.201  11.776  13.538  0.2888 -0.5424  0.5016
 2134UDC     C923472   7.108  11.658  13.570  0.0947  0.2545  0.6438
 2134UDC    C1023473   7.095  11.553  13.455 -0.4309 -1.5684  0.2942
 2134UDC    C1123474   6.988  11.438  13.452 -0.1814  1.4719  0.2106
 2135UDC     C123475  19.983  16.987  15.441  0.3842  0.2038 -0.1558
 2135UDC     C223476  19.889  16.985  15.561 -0.1234 -0.8616 -1.1849
 2135UDC     C323477  19.746  16.947  15.529  0.2794 -0.2421 -0.0285
 2135UDC     C423478  19.704  17.038  15.414  0.0454 -0.0278  0.7008
 2135UDC     C523479  19.570  17.000  15.336 -0.2736 -0.4556 -0.7411
 2135UDC     C623480  19.542  17.118  15.228 -0.1404 -0.5823 -0.1221
 2135UDC     C723481  19.506  17.265  15.270  0.3411  0.1308 -1.1116
 2135UDC     C823482  19.360  17.278  15.323  0.7441 -0.2881  0.5382
 2135UDC     C923483  19.354  17.414  15.383  0.4472  1.1183 -0.2312
 2135UDC    C1023484  19.382  17.537  15.291 -1.1444 -0.3842  0.7538
 2135UDC    C1123485  19.383  17.676  15.359  0.2610  0.0200 -0.9949
 2136UDC     C123486  15.186  10.276  14.055 -0.9512 -0.2478 -0.8161
 2136UDC     C223487  15.176  10.142  14.138  0.7820 -0.4159  0.1532
 2136UDC     C323488  15.035  10.095  14.160 -1.8726 -0.5578  0.2986
 2136UDC     C423489  14.934  10.189  14.232 -0.2435 -0.1572  0.1861
 2136UDC     C523490  14.824  10.251  14.144 -0.8948 -0.4733  0.2803
 2136UDC     C623491  14.686  10.284  14.198 -0.8542 -0.2425 -0.9358
 2136UDC     C723492  14.707  10.324  14.348  0.6177 -0.1106  0.0213
 2136UDC     C823493  14.584  10.381  14.418  0.2813  1.5151  0.3410
 2136UDC     C923494  14.622  10.389  14.570  1.0540  1.5143 -0.0602
 2136UDC    C1023495  14.511  10.460  14.647 -0.3965 -0.6017  0.6218
 2136UDC    C1123496  14.532  10.492  14.792 -0.7370  0.6535 -0.1404
 2137UDC     C123497   0.793  10.187  10.284  0.0703 -1.1531  1.6345
 2137UDC     C223498   0.890  10.118  10.384 -0.0507 -0.8766 -0.2157
 2137UDC     C323499   1.030  10.163  10.339 -0.5907 -0.6804 -0.9520
 2137UDC     C423500   1.126  10.072  10.419 -1.5235  0.5958  0.0755
 2137UDC     C523501   1.125  10.102  10.570 -0.0974  0.6012  0.4459
 2137UDC     C623502   1.031  10.011  10.670  0.2185 -0.5039  0.2706
 2137UDC     C723503   1.104   9.869  10.681  0.4509 -1.4346 -0.5481
 2137UDC     C823504   1.253   9.862  10.673 -0.9461 -0.9160  0.9062
 2137UDC     C923505   1.335   9.919  10.798  0.2122 -1.6552  0.1302
 2137UDC    C1023506   1.430  10.046  10.795  0.6883  0.5625  0.6301
 2137UDC    C1123507   1.542  10.048  10.897 -0.3655 -0.3390  0.5352
 2138UDC     C123508  18.346   4.771   4.245 -0.5700  0.2773  0.7448
 2138UDC     C223509  18.471   4.770   4.334 -0.0102 -0.3099  1.0397
 2138UDC     C323510  18.474   4.800   4.481 -0.2852 -1.2207  0.6015
 2138UDC     C423511  18.375   4.713   4.548 -0.3422 -0.1794 -1.2645
 2138UDC     C523512  18.292   4.795   4.651 -0.1588  0.1656  0.8575
 2138UDC     C623513  18.377   4.842   4.771 -0.3001  0.6169 -0.2440
 2138UDC     C723514  18.288   4.950   4.835  0.0436 -0.1906 -0.0946
 2138UDC     C823515  18.337   5.012   4.969 -0.4697 -0.8195 -0.4780
 2138UDC     C923516  18.483   5.063   4.988  0.3872 -0.9673 -0.4537
 2138UDC    C1023517  18.498   5.183   5.084  0.8243  0.7292  0.5857
 2138UDC    C1123518  18.442   5.132   5.218 -0.4853 -0.8569 -0.2205
 2139UDC     C123519  13.725   3.658   1.847  0.1280  0.4433  0.9246
 2139UDC     C223520  13.830   3.682   1.735  0.5356  0.0230  0.0544
 2139UDC     C323521  13.981   3.667   1.777  0.8794 -0.4897 -0.9056
 2139UDC     C423522  14.072   3.684   1.657  0.0727 -0.1978 -0.7763
 2139UDC     C523523  14.021   3.590   1.546  0.5833 -0.1276 -0.2399
 2139UDC     C623524  14.032   3.636   1.405 -0.5775 -0.3735  0.4824
 2139UDC     C723525  14.003   3.560   1.270 -0.2557  0.0301 -0.9896
 2139UDC     C823526  13.860   3.508   1.243 -0.7792  0.8465  0.6953
 2139UDC     C923527  13.749   3.615   1.241 -0.9043 -0.1184 -0.2850
 2139UDC    C1023528  13.651   3.572   1.351 -0.1689 -0.5664  0.0085
 2139UDC    C1123529  13.603   3.429   1.342 -0.3899 -0.0626 -0.1095
 2140UDC     C123530   4.611  15.666  11.635 -0.7049 -0.2576 -0.5717
 2140UDC     C223531   4.558  15.560  11.539  0.2471  1.0315 -0.4223
 2140UDC     C323532   4.469  15.448  11.582  0.4429  0.8036 -0.6226
 2140UDC     C423533   4.375  15.417  11.473 -0.0531 -0.5500 -0.8896
 2140UDC     C523534   4.267  15.310  11.514  0.6213  0.7694 -1.1619
 2140UDC     C623535   4.308  15.155  11.530 -0.0441  1.0401  0.2480
 2140UDC     C723536   4.182  15.060  11.534  0.3767 -0.1953  0.2376
 2140UDC     C823537   4.219  14.909  11.529  0.6469  0.1518  0.3302
 2140UDC     C923538   4.287  14.864  11.398 -0.6557 -0.6156 -0.3982
 2140UDC    C1023539   4.435  14.886  11.371 -1.1381 -0.0439 -0.6470
 2140UDC    C1123540   4.474  14.778  11.272 -0.8083  0.5029 -0.4455
 2141UDC     C123541  10.235   3.736  18.781  0.5997 -0.0053  0.0328
 2141UDC     C223542  10.201   3.710  18.636 -0.2389 -0.3548  0.3652
 2141UDC     C323543  10.324   3.670  18.553  0.3070  0.1244  0.8128
 2141UDC     C423544  10.281   3.666  18.405 -0.6242 -0.2152  0.1619
 2141UDC     C523545  10.402   3.639  18.311 -0.5101 -0.4663 -0.4731
 2141UDC     C623546  10.508   3.751  18.290  0.6707 -0.5485 -0.3765
 2141UDC     C723547  10.631   3.724  18.205 -0.2542 -0.5954 -0.1788
 2141UDC     C823548  10.707   3.606  18.261  0.0822 -1.1175  0.5866
 2141UDC     C923549  10.828   3.571  18.170  0.5201  0.5183  1.2017
 2141UDC    C1023550  10.921   3.469  18.229 -0.1041  0.7287 -0.1112
 2141UDC    C1123551  11.062   3.472  18.162  0.0823 -0.2026 -0.8604
 2142UDC     C123552   5.467   7.179  14.948  1.3410 -0.3059 -0.5097
 2142UDC     C223553   5.323   7.183  14.998  0.0422 -0.8028  1.0693
 2142UDC     C323554   5.220   7.117  14.901 -0.7538  0.3354 -1.0458
 2142UDC     C423555   5.072   7.140  14.920 -0.5814 -0.3623  0.7401
 2142UDC     C523556   4.973   7.070  14.832  0.1327 -0.0901  0.0439
 2142UDC     C623557   4.976   6.921  14.870 -0.6016 -0.1658  0.7506
 2142UDC     C723558   4.868   6.842  14.789 -0.2712 -0.0324 -0.8022
 2142UDC     C823559   4.867   6.700  14.845  0.7830  0.1949 -0.4397
 2142UDC     C923560   4.801   6.611  14.744 -0.2017  1.3348 -0.5333
 2142UDC    C1023561   4.746   6.489  14.817 -0.3295 -0.1342 -0.4956
 2142UDC    C1123562   4.596   6.508  14.852 -0.1032  0.0005 -0.5262
 2143UDC     C123563  19.424   1.223  17.249  0.3120  0.6741 -0.7678
 2143UDC     C223564  19.283   1.288  17.272  0.0583  0.3856 -0.6503
 2143UDC     C323565  19.167   1.199  17.235 -0.4375 -0.6285  0.1468
 2143UDC     C423566  19.193   1.053  17.248  0.1786 -0.6672 -0.4664
 2143UDC     C523567  19.094   0.957  17.173 -0.6837 -1.0346 -0.7548
 2143UDC     C623568  19.171   0.828  17.149 -0.4618 -0.8174 -0.4180
 2143UDC     C723569  19.084   0.709  17.111  0.0580  1.7936  0.7246
 2143UDC     C823570  19.001   0.632  17.218 -0.5823  0.7160 -0.1927
 2143UDC     C923571  19.024   0.482  17.197  0.0744  0.8413  0.1015
 2143UDC    C1023572  18.891   0.415  17.177  0.2170 -0.0931  0.1222
 2143UDC    C1123573  18.820   0.435  17.038 -0.2327  0.1555 -0.7728
 2144UDC     C123574   9.647   8.394   3.400 -0.7252 -0.2873 -1.1825
 2144UDC     C223575   9.694   8.259   3.459 -0.2184  0.5828 -0.1438
 2144UDC     C323576   9.785   8.261   3.581 -0.3687 -1.0987  0.5589
 2144UDC     C423577   9.905   8.355   3.560  0.0267 -0.5468 -0.7561
 2144UDC     C523578   9.970   8.402   3.698  0.1045 -0.6384  0.1167
 2144UDC     C623579  10.010   8.278   3.776 -0.1847  0.6386 -0.8904
 2144UDC     C723580  10.121   8.201   3.722 -0.4354  0.7881  0.4600
 2144UDC     C823581  10.098   8.057   3.782  0.5168 -0.3923  0.3573
 2144UDC     C923582  10.199   7.949   3.755 -0.9427 -0.4088  0.4186
 2144UDC    C1023583  10.192   7.862   3.627 -0.8146 -0.2072 -0.5028
 2144UDC    C1123584  10.283   7.741   3.642 -0.8631  0.6677  1.0010
 2145UDC     C123585   4.218  14.508   0.542 -0.2836  0.2629 -0.9200
 2145UDC     C223586   4.320  14.506   0.427  0.1226 -0.4066  0.1056
 2145UDC     C323587   4.328  14.389   0.325 -0.3264  0.0955  0.3321
 2145UDC     C423588   4.410  14.404   0.192  0.3097  0.1403 -0.4465
 2145UDC     C523589   4.332  14.459   0.071  1.5764 -0.1402 -0.9036
 2145UDC     C623590   4.419  14.472  -0.054 -0.9948 -1.5001 -0.7638
 2145UDC     C723591   4.353  14.525  -0.178 -0.3826  0.4210  0.2207
 2145UDC     C823592   4.452  14.516  -0.290 -0.1202  0.1917  0.1418
 2145UDC     C923593   4.538  14.392  -0.290 -0.4902  0.5230  0.2897
 2145UDC    C1023594   4.630  14.361  -0.411  0.1478 -0.2346 -0.0236
 2145UDC    C1123595   4.755  14.293  -0.358 -0.1175  0.4285  0.8131
 2146UDC     C123596   0.891   5.118  19.270  0.4237 -0.5759 -0.8638
 2146UDC     C223597   0.848   5.207  19.393  0.0819 -0.2682  0.3276
 2146UDC     C323598   0.947   5.187  19.508 -0.7364 -0.0062 -0.0121
 2146UDC     C423599   0.905   5.269  19.630 -0.7045 -0.3970  1.4242
 2146UDC     C523600   0.964   5.221  19.754 -0.2626  0.1717  1.0835
 2146UDC     C623601   0.871   5.294  19.851 -0.0577  0.0701 -0.4400
 2146UDC     C723602   0.919   5.261  19.998 -0.2526 -0.1311  0.1497
 2146UDC     C823603   0.900   5.117  20.049 -0.3477 -0.2490  0.3905
 2146UDC     C923604   0.897   5.093  20.195  1.5221  0.3726 -0.5669
 2146UDC    C1023605   0.769   5.139  20.259  0.9626  0.6901 -0.1968
 2146UDC    C1123606   0.764   5.132  20.409  1.4006 -0.8202 -0.6930
 2147UDC     C123607  10.991   9.875  17.682  0.0839 -0.0660  0.3971
 2147UDC     C223608  11.079   9.939  17.788 -0.2120  0.2387  0.6261
 2147UDC     C323609  11.072  10.084  17.814 -1.3134  0.4397  0.6060
 2147UDC     C423610  10.942  10.162  17.820 -0.7991 -1.3601  0.2563
 2147UDC     C523611  10.997  10.310  17.860  1.8165  0.5263 -0.8685
 2147UDC     C623612  10.880  10.405  17.899  0.8134  0.0623  0.0675
 2147UDC     C723613  10.819  10.458  17.770 -0.5674 -0.4504 -0.3591
 2147UDC     C823614  10.671  10.486  17.790  0.1407  0.9698  0.0710
 2147UDC     C923615  10.636  10.527  17.931 -1.2355 -0.0118 -1.3887
 2147UDC    C1023616  10.489  10.551  17.961  1.1137  0.4337  0.5560
 2147UDC    C1123617  10.470  10.585  18.110 -0.3996 -0.9833  0.2199
 2148UDC     C123618  17.492  12.878  12.908 -0.3980  0.9040  0.4019
 2148UDC     C223619  17.462  12.848  13.053  0.1955 -0.9241 -0.0943
 2148UDC     C323620  17.318  12.795  13.064 -0.2331  0.0560 -0.1387
 2148UDC     C423621  17.287  12.683  12.959 -0.1840  0.2210  0.2158
 2148UDC     C523622  17.140  12.637  12.973 -0.4397  1.3965 -1.2508
 2148UDC     C623623  17.098  12.507  12.905  0.1451 -0.3539  0.0255
 2148UDC     C723624  17.145  12.534  12.768  0.8667 -0.6547  0.4298
 2148UDC     C823625  17.247  12.437  12.708 -0.4656 -0.2702 -0.5996
 2148UDC     C923626  17.183  12.305  12.658 -0.0114 -0.9806 -0.2394
 2148UDC    C1023627  17.203  12.302  12.499  0.4405  0.2849 -0.4202
 2148UDC    C1123628  17.164  12.167  12.443 -0.2273  0.1227 -1.1930
 2149UDC     C123629   9.646  11.728  11.102 -0.2373  0.6318 -0.0429
 2149UDC     C223630   9.725  11.603  11.147  0.0166  0.5279 -0.2347
 2149UDC     C323631   9.795  11.595  11.283 -0.5526  0.0469 -0.0088
 2149UDC     C423632   9.707  11.573  11.409  0.7519  0.7591  0.2043
 2149UDC     C523633   9.631  11.690  11.466  1.8163 -0.2141 -0.3885
 2149UDC     C623634   9.485  11.694  11.417 -2.1262  0.8416  0.2644
 2149UDC     C723635   9.379  11.621  11.492  0.1711  0.9243 -0.2708
 2149UDC     C823636   9.251  11.620  11.409 -1.6598  1.1383  0.9674
 2149UDC     C923637   9.165  11.491  11.425  0.1245 -0.0767 -0.2281
 2149UDC    C1023638   9.005  11.481  11.421  0.0572 -0.0538  0.3434
 2149UDC    C1123639   8.949  11.501  11.566  0.2068 -0.5324 -0.3032
 2150UDC     C123640   3.480   7.464  16.521  0.2624 -0.3601  0.2040
 2150UDC     C223641   3.335   7.429  16.555  0.1657  0.1302 -0.6706
 2150UDC     C323642   3.314   7.274  16.560 -1.1710 -1.0648  0.4498
 2150UDC     C423643   3.215   7.210  16.645 -0.0789  0.7962  0.1789
 2150UDC     C523644   3.267   7.193  16.795  0.7459 -1.1764  1.6403
 2150UDC     C623645   3.150   7.150  16.894 -0.1680  0.6976  0.4582
 2150UDC     C723646   3.198   7.060  17.006  1.1173 -0.0049  0.0085
 2150UDC     C823647   3.076   7.042  17.096 -0.0686 -0.7790  0.5895
 2150UDC     C923648   3.038   7.176  17.162 -0.8444 -0.6049  0.2580
 2150UDC    C1023649   2.924   7.179  17.259  0.5170  0.0350 -0.1476
 2150UDC    C1123650   2.908   7.283  17.366 -0.2133 -0.8261 -0.2001
 2151UDC     C123651  12.325  18.238   9.894 -0.7909 -0.1498  0.9032
 2151UDC     C223652  12.177  18.231   9.896  0.4658 -0.4588 -0.0394
 2151UDC     C323653  12.105  18.263  10.029 -0.5211 -0.1998 -0.0665
 2151UDC     C423654  11.953  18.220  10.037  0.5796 -0.2868 -0.2400
 2151UDC     C523655  11.895  18.258  10.178  0.3248 -0.8450  0.1560
 2151UDC     C623656  11.759  18.204  10.214 -0.3357 -0.5006  1.0577
 2151UDC     C723657  11.677  18.252  10.333 -0.5310 -0.5647  0.0742
 2151UDC     C823658  11.725  18.177  10.458  0.1483 -0.3967 -0.4252
 2151UDC     C923659  11.743  18.282  10.571  0.0574 -0.7821  0.6354
 2151UDC    C1023660  11.845  18.266  10.686 -0.3618  0.0268 -0.4650
 2151UDC    C1123661  11.801  18.190  10.803 -0.5812 -0.0693  0.1641
 2152UDC     C123662  10.205   7.251  13.573  0.2106  0.5255  0.8873
 2152UDC     C223663  10.058   7.282  13.530 -0.0622 -1.2379  0.2325
 2152UDC     C323664  10.041   7.395  13.432 -0.4535 -0.7734  1.4445
 2152UDC     C423665   9.893   7.412  13.412 -0.3969 -0.7025  1.1469
 2152UDC     C523666   9.837   7.542  13.331 -0.7288  0.8018  0.7590
 2152UDC     C623667   9.894   7.674  13.382 -0.3413  0.2858 -0.1018
 2152UDC     C723668   9.846   7.802  13.311  1.2757 -0.0490  0.3610
 2152UDC     C823669   9.861   7.803  13.158  0.3491  0.5836  1.1808
 2152UDC     C923670   9.806   7.928  13.081  0.4603 -0.7550 -0.0949
 2152UDC    C1023671   9.913   8.045  13.069  0.8790  0.9587  0.9170
 2152UDC    C1123672   9.929   8.118  13.197  0.4573  1.0594 -0.0467
 2153UDC     C123673  18.939   2.679   0.298  1.2974 -0.4091  0.1207
 2153UDC     C223674  18.973   2.661   0.449 -0.3863  0.5730  0.2783
 2153UDC     C323675  19.112   2.706   0.500  0.0842 -0.3344 -0.9272
 2153UDC     C423676  19.220   2.626   0.435 -0.1063  0.9394  0.8200
 2153UDC     C523677  19.368   2.633   0.484 -0.1737 -0.0896  0.5083
 2153UDC     C623678  19.463   2.524   0.426 -0.9949  0.1168  0.3324
 2153UDC     C723679  19.611   2.523   0.483  0.0691  0.0699  0.2601
 2153UDC     C823680  19.683   2.659   0.448 -1.2475  1.2359  0.4066
 2153UDC     C923681  19.756   2.662   0.313 -0.5473  0.8586 -0.4816
 2153UDC    C1023682  19.791   2.811   0.278 -0.1009  0.6246 -0.8292
 2153UDC    C1123683  19.883   2.842   0.162  0.6914 -0.1565 -0.9864
 2154UDC     C123684   8.142  15.250   1.735 -0.4855  0.6555  0.5247
 2154UDC     C223685   8.024  15.238   1.633 -0.3657  1.0247 -0.5630
 2154UDC     C323686   7.983  15.384   1.597  0.1133  0.0630 -0.0031
 2154UDC     C423687   7.864  15.383   1.499  0.4593  0.9407 -0.3256
 2154UDC     C523688   7.894  15.330   1.367 -0.8850 -0.1111 -0.0994
 2154UDC     C623689   7.764  15.372   1.292 -0.2634  0.5935  0.1318
 2154UDC     C723690   7.639  15.330   1.360  0.1700  0.4710 -0.8205
 2154UDC     C823691   7.514  15.391   1.292  0.0335 -0.6000  1.1022
 2154UDC     C923692   7.479  15.330   1.161  1.1226 -0.8560 -0.4819
 2154UDC    C1023693   7.484  15.174   1.177 -0.3675  0.4031 -0.7362
 2154UDC    C1123694   7.369  15.081   1.235 -0.4883 -1.2062  0.9411
 2155UDC     C123695   5.669  15.695   4.752  0.5678  0.0908 -0.4415
 2155UDC     C223696   5.661  15.820   4.669 -0.7785  0.8648 -0.7566
 2155UDC     C323697   5.734  15.787   4.537 -0.2758 -0.8593  0.1069
 2155UDC     C423698   5.702  15.893   4.431 -0.5197  0.0797  0.8982
 2155UDC     C523699   5.738  16.035   4.484 -0.0052  0.4594  1.0386
 2155UDC     C623700   5.683  16.165   4.413 -1.0964 -0.4426  1.3629
 2155UDC     C723701   5.535  16.185   4.390 -0.1696 -0.1861 -0.8776
 2155UDC     C823702   5.496  16.087   4.280 -0.2704  1.1108  0.7048
 2155UDC     C923703   5.344  16.067   4.263 -0.2503  1.0870  0.2073
 2155UDC    C1023704   5.302  15.931   4.199 -0.1427  0.3821  0.7030
 2155UDC    C1123705   5.148  15.920   4.175  0.7559  0.3808  0.2769
 2156UDC     C123706  12.417  16.194  17.073 -0.5653  0.2718 -0.2335
 2156UDC     C223707  12.337  16.119  17.177 -0.2856  0.1011 -0.6893
 2156UDC     C323708  12.408  16.041  17.283  0.1260 -0.5249  0.3077
 2156UDC     C423709  12.398  15.902  17.240  0.1289 -0.1147 -0.3610
 2156UDC     C523710  12.504  15.803  17.283  0.2855 -0.3465 -0.7376
 2156UDC     C623711  12.636  15.877  17.304 -1.1949  0.1322 -0.6643
 2156UDC     C723712  12.759  15.790  17.295  0.0546  0.4200 -0.0345
 2156UDC     C823713  12.767  15.730  17.160 -1.1697  0.4806 -0.4746
 2156UDC     C923714  12.825  15.587  17.154 -0.7324 -0.7529  0.7736
 2156UDC    C1023715  12.821  15.527  17.009  0.7242  0.6309 -0.1463
 2156UDC    C1123716  12.802  15.370  17.010  0.7549 -0.4051 -0.4646
 2157UDC     C123717   1.799   5.032   5.305 -0.5116 -0.1472 -0.2151
 2157UDC     C223718   1.914   5.082   5.383 -0.4401 -0.4157 -1.2289
 2157UDC     C323719   1.967   4.973   5.477 -1.1725  0.6325  0.1090
 2157UDC     C423720   2.100   5.019   5.534  0.4341  0.5584  0.4183
 2157UDC     C523721   2.206   5.026   5.419  0.9722 -0.3821 -0.1599
 2157UDC     C623722   2.272   5.161   5.404 -0.4687 -0.6931  0.0209
 2157UDC     C723723   2.393   5.163   5.323  0.2369 -0.0815 -0.5285
 2157UDC     C823724   2.459   5.295   5.284  0.1873  0.0789  0.4626
 2157UDC     C923725   2.609   5.276   5.247 -0.5682 -0.2433  0.9406
 2157UDC    C1023726   2.619   5.182   5.124 -0.3630 -0.7188  0.1909
 2157UDC    C1123727   2.760   5.191   5.069  0.0793 -0.3813 -0.2450
 2158UDC     C123728   2.179  14.316  18.137 -0.8399 -0.0673  0.7889
 2158UDC     C223729   2.111  14.193  18.082 -0.0166  0.9152 -0.3516
 2158UDC     C323730   2.165  14.053  18.135  0.1870  0.2162 -0.3614
 2158UDC     C423731   2.169  14.003  18.274  0.5391 -0.1960 -0.0954
 2158UDC     C523732   2.035  13.958  18.349  1.2404  0.2735  0.6103
 2158UDC     C623733   2.042  13.952  18.501  0.2079  0.5902 -0.2613
 2158UDC     C723734   2.088  13.825  18.574 -0.0205 -0.1720  1.5339
 2158UDC     C823735   1.990  13.708  18.565  1.1398  0.5368  0.4626
 2158UDC     C923736   2.038  13.585  18.651 -1.1294 -0.3676  0.2865
 2158UDC    C1023737   2.191  13.541  18.647  0.1290 -0.5808 -0.2550
 2158UDC    C1123738   2.195  13.437  18.764  0.1530 -0.5945  0.5189
 2159UDC     C123739   6.213   7.255   4.383 -0.2838 -0.1246  0.3978
 2159UDC     C223740   6.159   7.145   4.480 -1.1320  1.5374  0.1891
 2159UDC     C323741   6.072   7.030   4.414  0.3364  0.5348 -1.2190
 2159UDC     C423742   6.174   6.923   4.391  0.2748 -0.5449  0.5973
 2159UDC     C523743   6.259   6.898   4.512  0.8775 -0.6304  0.9137
 2159UDC     C623744   6.387   6.819   4.494 -0.3209 -0.5300 -0.3363
 2159UDC     C723745   6.354   6.680   4.439  0.1244  0.9002  1.0635
 2159UDC     C823746   6.398   6.648   4.297  0.6950  0.7244  0.5580
 2159UDC     C923747   6.408   6.498   4.276  0.7615  0.0303  0.7007
 2159UDC    C1023748   6.527   6.426   4.341  0.4169 -0.3850  0.1822
 2159UDC    C1123749   6.548   6.279   4.305  0.9169 -1.0184  0.0337
 2160UDC     C123750  13.004  19.542   8.241 -0.4783  0.3816 -0.3784
 2160UDC     C223751  12.876  19.485   8.303 -0.6917  0.0648 -0.2683
 2160UDC     C323752  12.781  19.404   8.212 -0.0146  0.1984 -0.6380
 2160UDC     C423753  12.662  19.342   8.282 -0.0027 -0.1806  1.2630
 2160UDC     C523754  12.619  19.217   8.207 -0.9344  0.0390  0.2043
 2160UDC     C623755  12.524  19.121   8.277 -0.3107 -0.6121  0.3592
 2160UDC     C723756  12.584  18.982   8.316  0.2528  0.6450 -0.0544
 2160UDC     C823757  12.481  18.887   8.382  0.2684  0.1185 -0.2284
 2160UDC     C923758  12.532  18.794   8.494  0.9320 -0.4902 -0.5094
 2160UDC    C1023759  12.427  18.761   8.600  0.1412  0.1881 -0.5279
 2160UDC    C1123760  12.332  18.646   8.571  0.0629 -0.1231 -0.5494
 2161UDC     C123761   8.618  16.046   8.224 -0.7524  0.9188  1.3924
 2161UDC     C223762   8.571  15.904   8.201 -0.2864 -1.1289  0.3926
 2161UDC     C323763   8.655  15.827   8.111  0.5439  0.0094 -0.4690
 2161UDC     C423764   8.613  15.683   8.083  0.7950 -0.2765 -0.6075
 2161UDC     C523765   8.735  15.592   8.070  0.4966 -0.6254  0.8964
 2161UDC     C623766   8.715  15.441   8.067  0.6028  0.0901  0.3771
 2161UDC     C723767   8.840  15.355   8.060 -1.0501 -0.3496  1.0014
 2161UDC     C823768   8.826  15.203   8.053 -0.0046 -0.2919  1.5651
 2161UDC     C923769   8.948  15.107   8.090 -0.1950 -1.1690  0.2405
 2161UDC    C1023770   8.943  14.962   8.142  0.6703  0.1183 -0.9332
 2161UDC    C1123771   8.937  14.953   8.299 -0.0963  0.1030  0.3283
 2162UDC     C123772  15.210  13.580   3.978 -0.7699  0.0840 -0.4072
 2162UDC     C223773  15.148  13.541   4.109 -0.0020 -0.1402 -1.3897
 2162UDC     C323774  15.062  13.642   4.185 -0.2542 -0.2231  0.9353
 2162UDC     C423775  15.139  13.686   4.310  0.4644 -0.1314 -0.0590
 2162UDC     C523776  15.063  13.761   4.422  0.2418 -0.0416  0.1795
 2162UDC     C623777  15.017  13.896   4.367  0.3493 -0.3857 -0.2519
 2162UDC     C723778  14.947  14.005   4.447  0.2340  0.1772  0.1191
 2162UDC     C823779  14.802  13.963   4.484  0.6373  0.1207  0.5980
 2162UDC     C923780  14.735  14.073   4.565  0.2988 -0.2090  0.2844
 2162UDC    C1023781  14.585  14.037   4.594 -0.9587  0.6073 -0.3918
 2162UDC    C1123782  14.529  14.136   4.696  0.2220 -0.2535 -0.1157
 2163UDC     C123783   1.283   8.699   6.227 -0.6811  0.3834 -0.7254
 2163UDC     C223784   1.195   8.579   6.260  1.2376 -0.1012  0.8339
 2163UDC     C323785   1.253   8.444   6.307  0.6920  0.8122  0.3449
 2163UDC     C423786   1.144   8.340   6.359 -0.1593 -0.8906 -0.5550
 2163UDC     C523787   1.191   8.197   6.410  1.0824 -0.7146  0.3030
 2163UDC     C623788   1.318   8.174   6.502 -0.8460  0.5588 -0.9695
 2163UDC     C723789   1.262   8.230   6.630  0.5843 -0.8675  1.0967
 2163UDC     C823790   1.365   8.284   6.726 -1.1595  0.0943 -0.1227
 2163UDC     C923791   1.337   8.302   6.873 -0.2654 -0.0582  0.0968
 2163UDC    C1023792   1.458   8.332   6.964 -1.2443  0.0031 -0.9317
 2163UDC    C1123793   1.484   8.480   6.992  0.6735 -0.7049  0.5062
 2164UDC     C123794   4.315  15.173   3.077 -0.3396 -0.1291  0.1427
 2164UDC     C223795   4.213  15.177   2.963 -0.1618 -0.9526  0.8047
 2164UDC     C323796   4.188  15.312   2.904  0.3367 -0.4881 -0.2696
 2164UDC     C423797   4.287  15.368   2.802 -1.0180  0.2306  0.0213
 2164UDC     C523798   4.249  15.509   2.758  0.1093  0.2053 -0.5167
 2164UDC     C623799   4.105  15.545   2.712  0.3531  0.1773  0.0069
 2164UDC     C723800   4.093  15.680   2.653  0.3283 -0.5875 -1.3835
 2164UDC     C823801   4.048  15.684   2.513  0.2955 -0.1095  0.1877
 2164UDC     C923802   4.052  15.834   2.467 -0.3945 -0.5213 -1.6113
 2164UDC    C1023803   3.977  15.860   2.337  0.0886  0.4044  0.1099
 2164UDC    C1123804   3.827  15.849   2.352 -1.8408 -0.0640 -0.7077
 2165UDC     C123805  11.587   4.741  15.926 -0.7985 -0.1784 -0.4055
 2165UDC     C223806  11.493   4.625  15.968 -0.2073 -0.2942  0.4532
 2165UDC     C323807  11.359   4.616  15.894 -0.6744 -0.8436 -0.6546
 2165UDC     C423808  11.371   4.476  15.834 -0.6779 -0.7129 -0.4878
 2165UDC     C523809  11.338   4.384  15.952  0.3696 -0.0918  0.6260
 2165UDC     C623810  11.366   4.235  15.929 -0.3668  0.2041  0.6858
 2165UDC     C723811  11.267   4.156  15.838 -0.0725  0.0654  0.0040
 2165UDC     C823812  11.287   4.008  15.849 -0.9591 -0.4887  0.5130
 2165UDC     C923813  11.249   3.954  15.992 -0.8318  1.0919  0.6561
 2165UDC    C1023814  11.266   3.796  16.004  0.5608 -0.6701  0.0989
 2165UDC    C1123815  11.186   3.747  16.123 -0.2091  0.0009 -0.5484
 2166UDC     C123816  16.120   9.994  15.803 -0.7292 -0.7489  0.1627
 2166UDC     C223817  16.147  10.102  15.912  0.5491  0.6419 -0.3961
 2166UDC     C323818  16.281  10.097  15.985 -0.1693 -0.2839  0.0055
 2166UDC     C423819  16.310  10.176  16.114  0.3580  2.0288  0.1803
 2166UDC     C523820  16.259  10.102  16.235 -0.8704 -1.5441  0.1393
 2166UDC     C623821  16.330   9.966  16.264  0.8729  0.3280  0.5990
 2166UDC     C723822  16.371   9.947  16.410 -0.2226  0.6644  0.5307
 2166UDC     C823823  16.430   9.807  16.433 -0.8894  0.4436 -0.5202
 2166UDC     C923824  16.460   9.804  16.586  0.4029 -0.7443  0.4947
 2166UDC    C1023825  16.337   9.806  16.674  0.3930 -0.5787  0.1740
 2166UDC    C1123826  16.353   9.745  16.814 -1.1542  0.9010  0.4252
 2167UDC     C123827  16.717  15.368  11.103 -0.0087 -1.5576 -0.0108
 2167UDC     C223828  16.635  15.249  11.152 -0.2800  0.7596 -0.3776
 2167UDC     C323829  16.599  15.213  11.294 -0.5404  0.6923 -0.2578
 2167UDC     C423830  16.466  15.132  11.318  0.5197  0.6890 -0.0993
 2167UDC     C523831  16.367  15.172  11.432  0.4549 -0.5610  0.4682
 2167UDC     C623832  16.346  15.071  11.552  0.4932  0.3890  0.4528
 2167UDC     C723833  16.215  15.076  11.636 -0.1930 -0.3354  0.8571
 2167UDC     C823834  16.165  14.950  11.716  0.1770 -0.0677  0.2697
 2167UDC     C923835  16.035  14.979  11.789 -0.4119 -0.5443  0.0337
 2167UDC    C1023836  15.958  14.856  11.837  0.0681  0.0053  0.0183
 2167UDC    C1123837  15.932  14.751  11.727 -0.1118  0.3029 -0.4865
 2168UDC     C123838  13.431   5.158   5.732 -0.4235 -0.3360  0.3120
 2168UDC     C223839  13.372   5.231   5.854  0.5426 -0.2975 -0.7821
 2168UDC     C323840  13.231   5.286   5.805 -0.4379 -0.0543 -1.5455
 2168UDC     C423841  13.124   5.346   5.897 -1.0959  1.2060 -0.3110
 2168UDC     C523842  13.168   5.454   6.000 -0.1873  0.5820 -1.7381
 2168UDC     C623843  13.046   5.514   6.070  1.0315 -0.1841  0.2888
 2168UDC     C723844  12.908   5.529   5.993  0.5142  0.1829  1.2194
 2168UDC     C823845  12.807   5.597   6.090 -0.1052  0.6270  0.1255
 2168UDC     C923846  12.679   5.664   6.027  0.6480 -0.2055 -0.8883
 2168UDC    C1023847  12.562   5.719   6.110 -0.2384 -0.6452  0.5045
 2168UDC    C1123848  12.604   5.851   6.179 -0.4329 -0.2231 -0.1911
 2169UDC     C123849  10.439  16.183  17.436 -1.4021 -0.3727 -0.2342
 2169UDC     C223850  10.498  16.087  17.327 -0.8853 -0.5717 -0.3704
 2169UDC     C323851  10.650  16.090  17.361  0.5117 -0.5939 -0.2493
 2169UDC     C423852  10.749  16.031  17.260 -0.7610 -0.8864  0.1005
 2169UDC     C523853  10.895  16.038  17.314 -1.3756 -0.2392 -0.1228
 2169UDC     C623854  10.901  15.986  17.459 -0.5873 -0.0651  0.4556
 2169UDC     C723855  11.012  15.999  17.558 -0.5804 -0.4400 -0.6779
 2169UDC     C823856  11.137  16.024  17.477 -0.7469 -0.0907  0.5973
 2169UDC     C923857  11.271  16.036  17.539  0.3867  0.3847 -1.2412
 2169UDC    C1023858  11.329  15.897  17.586 -0.3482 -0.2781  1.7482
 2169UDC    C1123859  11.360  15.829  17.450  0.5930 -0.2326 -0.3892
 2170UDC     C123860  15.755  13.933   0.464 -0.7399 -0.5987  0.2366
 2170UDC     C223861  15.779  14.085   0.446 -0.5503 -0.2776  0.2667
 2170UDC     C323862  15.665  14.168   0.510 -0.6783  0.4199  0.0349
 2170UDC     C423863  15.661  14.154   0.667 -0.8284  0.2344 -0.5505
 2170UDC     C523864  15.522  14.220   0.706 -1.1579  0.7998 -0.4437
 2170UDC     C623865  15.471  14.214   0.855  0.0483 -0.6053  0.4025
 2170UDC     C723866  15.564  14.293   0.954  0.6008  0.5048 -0.6144
 2170UDC     C823867  15.500  14.272   1.094 -0.1733  0.3263  0.6499
 2170UDC     C923868  15.356  14.335   1.100  0.1658 -0.7957  1.5611
 2170UDC    C1023869  15.350  14.487   1.134  0.0209  1.0803  0.6803
 2170UDC    C1123870  15.207  14.531   1.078 -0.5237  0.2855  0.0393
 2171UDC     C123871  19.579   1.638   6.863 -0.0564  0.0243  0.7475
 2171UDC     C223872  19.455   1.720   6.828  1.0120 -1.1319 -0.3900
 2171UDC     C323873  19.330   1.672   6.912 -1.0818  0.1522  0.2523
 2171UDC     C423874  19.203   1.696   6.836 -0.2413 -0.4712 -1.6224
 2171UDC     C523875  19.094   1.770   6.919  0.3994 -0.0999 -0.0224
 2171UDC     C623876  19.003   1.848   6.824 -0.5558  0.3066  0.2231
 2171UDC     C723877  18.880   1.908   6.880  0.4251  0.6357 -1.1540
 2171UDC     C823878  18.792   1.983   6.782 -0.5844  0.2836  1.0517
 2171UDC     C923879  18.661   2.049   6.827 -0.1663  0.2724  0.0426
 2171UDC    C1023880  18.656   2.141   6.952 -1.7872  0.1174 -0.2169
 2171UDC    C1123881  18.597   2.279   6.922 -0.4177  0.2395 -0.1572
 2172UDC     C123882   2.632   7.727  17.631 -1.9176  0.7971  0.6103
 2172UDC     C223883   2.678   7.719  17.779  0.5400  0.4832  0.0605
 2172UDC     C323884   2.740   7.580  17.821  0.3420 -0.4194 -0.0667
 2172UDC     C423885   2.837   7.511  17.722  0.3210  0.5562  0.3646
 2172UDC     C523886   2.925   7.398  17.782  0.7750 -0.4049  0.2029
 2172UDC     C623887   3.005   7.445  17.906 -0.6796  0.3217 -0.1710
 2172UDC     C723888   3.116   7.357  17.953 -0.1745 -0.9578  0.2343
 2172UDC     C823889   3.193   7.395  18.068 -0.5020 -0.0811  0.1965
 2172UDC     C923890   3.325   7.315  18.069  0.1626 -0.9549  0.4761
 2172UDC    C1023891   3.431   7.341  18.181 -0.0824 -0.1411  0.6193
 2172UDC    C1123892   3.516   7.221  18.228  0.6162  0.2428  0.6787
 2173UDC     C123893   4.483  15.117  17.112  0.3775 -0.0958 -0.9605
 2173UDC     C223894   4.445  15.262  17.140 -0.2695 -0.2308 -0.5196
 2173UDC     C323895   4.365  15.286  17.274  0.2383 -1.1709 -0.0608
 2173UDC     C423896   4.464  15.341  17.376  0.0820  0.1975 -0.1114
 2173UDC     C523897   4.387  15.387  17.505 -0.9420  0.6474  0.4538
 2173UDC     C623898   4.478  15.432  17.620  0.4276  0.1478 -1.3289
 2173UDC     C723899   4.559  15.318  17.674 -0.4169  0.0446 -0.5619
 2173UDC     C823900   4.656  15.350  17.795  0.8268  0.1768  0.0482
 2173UDC     C923901   4.789  15.283  17.787  1.4915 -0.4493  0.7789
 2173UDC    C1023902   4.888  15.347  17.890  0.2202 -0.9334  0.5270
 2173UDC    C1123903   4.906  15.494  17.862 -0.0261 -0.2167  0.1932
 2174UDC     C123904   4.482   1.167   3.059  0.3346  0.0338 -0.0541
 2174UDC     C223905   4.509   1.310   3.010  0.1763  0.1930  1.1196
 2174UDC     C323906   4.640   1.372   3.055  0.2872  0.2247 -1.1451
 2174UDC     C423907   4.635   1.396   3.207 -0.6261  0.6465  0.3901
 2174UDC     C523908   4.769   1.379   3.281 -0.8057 -0.0923 -1.1670
 2174UDC     C623909   4.787   1.257   3.373 -0.3625 -0.0980 -0.9913
 2174UDC     C723910   4.827   1.129   3.310 -0.6374  0.2936 -0.7181
 2174UDC     C823911   4.807   1.002   3.394 -1.0572  0.0530 -0.0196
 2174UDC     C923912   4.888   0.875   3.369 -0.1113  0.5797 -0.5600
 2174UDC    C1023913   4.951   0.819   3.504 -0.0507  0.1903  0.3287
 2174UDC    C1123914   4.847   0.752   3.593 -0.4468  0.2748 -0.0168
 2175UDC     C123915   0.942  15.477   8.983 -0.8773  0.2587  0.2497
 2175UDC     C223916   0.789  15.440   8.984 -0.4830  0.1850  0.4782
 2175UDC     C323917   0.760  15.290   8.962 -0.3851  0.3449  0.2024
 2175UDC     C423918   0.653  15.249   8.859  0.2336 -0.5725 -1.3854
 2175UDC     C523919   0.592  15.104   8.864 -0.5185 -0.4136  0.2776
 2175UDC     C623920   0.520  15.050   8.989 -0.3443 -1.0305 -1.4602
 2175UDC     C723921   0.407  15.140   9.043 -0.5093 -0.0778  0.0587
 2175UDC     C823922   0.333  15.068   9.153  0.2606  0.2143  1.1874
 2175UDC     C923923   0.393  15.056   9.292 -0.3547  0.2324 -1.1211
 2175UDC    C1023924   0.302  14.962   9.367 -0.6419 -0.3519  0.7393
 2175UDC    C1123925   0.175  15.036   9.394 -0.0755  0.3475  0.7560
 2176UDC     C123926  11.377   7.165   4.102 -0.2595 -0.1237  0.5354
 2176UDC     C223927  11.475   7.136   4.215 -0.5160  0.1483  0.5160
 2176UDC     C323928  11.443   7.203   4.352  0.1139 -0.2263 -0.0738
 2176UDC     C423929  11.538   7.155   4.454 -1.9826 -0.1281  0.1902
 2176UDC     C523930  11.606   7.268   4.535  0.1235 -1.1802  0.0357
 2176UDC     C623931  11.734   7.244   4.629  1.1556  0.2661  0.4409
 2176UDC     C723932  11.826   7.142   4.557  0.1998 -0.6395  0.1765
 2176UDC     C823933  11.981   7.164   4.570 -0.6844  0.7247 -1.5381
 2176UDC     C923934  12.059   7.057   4.480  0.6906 -0.4358  0.3612
 2176UDC    C1023935  12.120   7.110   4.348 -0.3601  1.6577 -0.6033
 2176UDC    C1123936  12.176   6.990   4.267 -0.0290  0.1090 -0.6576
 2177UDC     C123937  15.584   1.449  14.431 -0.9512  0.5840  1.6347
 2177UDC     C223938  15.569   1.510  14.569  0.0852 -0.9593  0.6019
 2177UDC     C323939  15.695   1.583  14.626  0.6704  0.2408 -1.0512
 2177UDC     C423940  15.696   1.545  14.781  0.5061  0.6157  0.1352
 2177UDC     C523941  15.609   1.408  14.801 -0.6787  0.5139 -1.4437
 2177UDC     C623942  15.613   1.358  14.946  0.0783  0.3396 -0.5425
 2177UDC     C723943  15.742   1.292  14.997 -0.2455 -0.5404  0.5453
 2177UDC     C823944  15.808   1.356  15.120 -0.2026  0.2095 -0.0332
 2177UDC     C923945  15.896   1.268  15.201 -0.0120 -0.3264 -0.6545
 2177UDC    C1023946  15.971   1.333  15.324 -0.4902  0.9326  0.0956
 2177UDC    C1123947  16.122   1.305  15.349 -0.2656 -0.6633 -1.2974
 2178UDC     C123948   9.023  17.153  14.509 -0.3138 -0.2973 -0.2209
 2178UDC     C223949   9.101  17.021  14.535 -0.9089  1.4842  0.2020
 2178UDC     C323950   9.098  16.972  14.681  0.8301 -0.5284 -0.1122
 2178UDC     C423951   9.201  17.043  14.764 -0.0984  0.4962 -0.6704
 2178UDC     C523952   9.192  17.026  14.917  1.2202  0.3741  0.7678
 2178UDC     C623953   9.262  16.894  14.941 -0.0841 -0.1193 -1.1524
 2178UDC     C723954   9.249  16.828  15.077 -0.0077  0.3093 -0.5896
 2178UDC     C823955   9.317  16.691  15.068  1.4145 -1.1767  0.7529
 2178UDC     C923956   9.439  16.683  14.984 -0.1748 -0.2470 -0.8975
 2178UDC    C1023957   9.486  16.541  14.939  0.6466 -0.3985  0.1789
 2178UDC    C1123958   9.533  16.437  15.043 -0.6874 -0.1774 -0.3261
 2179UDC     C123959   0.740   3.044   7.624 -0.6452 -0.2697 -1.0185
 2179UDC     C223960   0.843   3.129   7.701  0.0412  0.8203 -0.8130
 2179UDC     C323961   0.782   3.223   7.800  0.9105 -1.1337  0.1859
 2179UDC     C423962   0.696   3.173   7.912 -0.6810 -0.1778  0.9432
 2179UDC     C523963   0.553   3.122   7.882 -0.9359  0.4310 -0.0774
 2179UDC     C623964   0.457   3.053   7.983  0.1406  0.2044 -0.7215
 2179UDC     C723965   0.473   2.903   8.028  0.2065  0.4322 -0.0307
 2179UDC     C823966   0.622   2.869   8.059  0.1069 -0.7109 -0.0665
 2179UDC     C923967   0.651   2.740   8.141 -0.0377 -0.6683  0.0789
 2179UDC    C1023968   0.714   2.635   8.045 -0.3629  0.0357  0.0396
 2179UDC    C1123969   0.679   2.492   8.081  0.3886 -0.2845 -0.4911
 2180UDC     C123970   3.575   9.297  14.767 -0.1667 -0.4902 -0.7645
 2180UDC     C223971   3.495   9.431  14.775 -0.8694 -0.6176  0.7396
 2180UDC     C323972   3.530   9.528  14.663 -0.0988 -0.8157 -0.1748
 2180UDC     C423973   3.464   9.673  14.659  0.1951  0.3140  0.2296
 2180UDC     C523974   3.337   9.685  14.738  0.6777 -0.9255  0.3490
 2180UDC     C623975   3.256   9.808  14.686  0.1127  0.5598 -0.5637
 2180UDC     C723976   3.117   9.827  14.742 -0.0769  0.9411  1.2577
 2180UDC     C823977   3.030   9.935  14.669 -1.0088  0.5145  0.0573
 2180UDC     C923978   2.913  10.012  14.717  0.7062  0.7749 -0.1310
 2180UDC    C1023979   2.901  10.108  14.598 -0.8476  0.2626 -1.8197
 2180UDC    C1123980   2.963  10.244  14.628 -0.6590 -0.3655  0.4866
 2181UDC     C123981  12.269   5.884  13.521  0.6690  1.2342  0.6004
 2181UDC     C223982  12.377   5.844  13.411 -1.5624  0.7118  0.1269
 2181UDC     C323983  12.507   5.791  13.480  1.2512 -0.1459 -0.2456
 2181UDC     C423984  12.589   5.904  13.535 -0.1549  0.5196 -1.3665
 2181UDC     C523985  12.629   6.022  13.446  1.5336 -0.2802 -0.3256
 2181UDC     C623986  12.723   6.114  13.516 -0.5015  0.3197  0.5802
 2181UDC     C723987  12.686   6.148  13.659  0.7747 -0.4408  0.7795
 2181UDC     C823988  12.811   6.189  13.736 -0.4966 -0.7219  0.1153
 2181UDC     C923989  12.876   6.086  13.827  0.3833 -0.6136 -0.1282
 2181UDC    C1023990  12.971   6.160  13.927  0.0883 -0.1333 -0.9238
 2181UDC    C1123991  12.915   6.225  14.060 -0.4951  0.1581 -0.3474
 2182UDC     C123992  13.049   0.572   4.716  0.7440  0.3239  0.4081
 2182UDC     C223993  12.981   0.569   4.576  0.4028  0.0980  0.1956
 2182UDC     C323994  13.036   0.678   4.482  0.4762 -0.6386  0.5742
 2182UDC     C423995  12.951   0.687   4.356  1.5598  0.3307 -0.0858
 2182UDC     C523996  12.971   0.811   4.262  0.4734 -0.3546 -0.2404
 2182UDC     C623997  12.989   0.950   4.323 -0.3128  0.0551 -0.2120
 2182UDC     C723998  13.038   1.070   4.236  0.8377 -1.4286  0.4817
 2182UDC     C823999  12.938   1.135   4.136  0.2115 -1.3016  0.0779
 2182UDC     C924000  12.866   1.263   4.191 -0.4492  0.6550  0.3395
 2182UDC    C1024001  12.729   1.315   4.138 -0.7115 -0.3047 -0.4867
 2182UDC    C1124002  12.613   1.219   4.149  0.2483  0.4144 -0.5199
 2183UDC     C124003  13.972  12.918   0.330 -0.6428 -1.1854  0.0799
 2183UDC     C224004  14.046  12.980   0.212  0.3492 -0.2106  0.3230
 2183UDC     C324005  14.101  12.875   0.117 -0.5222 -1.1666 -0.1913
 2183UDC     C424006  14.144  12.939  -0.021  0.7959  0.9084 -0.5051
 2183UDC     C524007  14.169  12.818  -0.119  0.0053  0.2032  0.6919
 2183UDC     C624008  14.186  12.681  -0.050  0.3941  0.0578  0.6213
 2183UDC     C724009  14.209  12.551  -0.128 -0.1199  0.2424  0.9174
 2183UDC     C824010  14.233  12.427  -0.040 -0.0559  0.4900 -0.0373
 2183UDC     C924011  14.098  12.412   0.030  1.0167  0.0836  0.1538
 2183UDC    C1024012  14.088  12.314   0.140 -0.9652 -0.5953  0.0082
 2183UDC    C1124013  14.155  12.370   0.270  0.0055  0.0620 -0.0897
 2184UDC     C124014   5.135  15.466  15.507 -0.9201 -0.0040 -0.5342
 2184UDC     C224015   5.009  15.457  15.418  0.3520 -0.0208  0.2336
 2184UDC     C324016   4.887  15.464  15.505 -0.5317  0.9824 -1.0108
 2184UDC     C424017   4.873  15.336  15.596 -0.2285  0.3712 -0.0278
 2184UDC     C524018   4.770  15.227  15.573  0.4296  0.5515  0.3367
 2184UDC     C624019   4.788  15.132  15.449 -0.4676 -0.7516 -0.8680
 2184UDC     C724020   4.674  15.040  15.422 -1.0989 -0.0140  0.4777
 2184UDC     C824021   4.711  14.898  15.365  0.5719 -0.4862  0.6097
 2184UDC     C924022   4.605  14.797  15.364 -0.7103 -0.1133 -0.1770
 2184UDC    C1024023   4.639  14.648  15.326 -0.5971  0.0348  0.1209
 2184UDC    C1124024   4.527  14.557  15.374 -0.5368 -0.0614 -0.0874
 2185UDC     C124025   2.806  11.531  10.659 -0.2024  0.6479  0.5592
 2185UDC     C224026   2.799  11.634  10.782 -1.5951 -0.6249  0.5567
 2185UDC     C324027   2.746  11.783  10.763 -1.4553 -0.2381  0.9725
 2185UDC     C424028   2.600  11.801  10.733  0.0552 -0.0540  0.1674
 2185UDC     C524029   2.559  11.937  10.678 -0.7737  0.6398  0.1560
 2185UDC     C624030   2.408  11.977  10.670  0.1916  0.3749 -0.1508
 2185UDC     C724031   2.321  11.985  10.800 -0.1179  0.0891  0.6545
 2185UDC     C824032   2.176  12.031  10.777 -0.3809 -0.6859  0.0764
 2185UDC     C924033   2.099  12.110  10.886 -0.4980  0.0640 -0.0889
 2185UDC    C1024034   1.949  12.133  10.844 -0.2028 -0.6575 -0.9284
 2185UDC    C1124035   1.844  12.090  10.954  0.4277 -0.3323  0.9105
 2186UDC     C124036  12.663   9.581  18.014  0.3900 -1.3119  0.5083
 2186UDC     C224037  12.743   9.651  17.895  0.4702  2.3890 -0.2992
 2186UDC     C324038  12.697   9.616  17.752 -0.2559 -0.1226  0.5942
 2186UDC     C424039  12.750   9.476  17.720 -1.3016 -0.7815 -0.4741
 2186UDC     C524040  12.651   9.407  17.628 -0.5641  0.4499  1.3160
 2186UDC     C624041  12.686   9.251  17.614 -0.3338  0.5321  0.3318
 2186UDC     C724042  12.653   9.175  17.750  0.0674  0.0196  0.7706
 2186UDC     C824043  12.522   9.185  17.833 -0.0504 -0.4065 -1.4393
 2186UDC     C924044  12.412   9.110  17.752 -0.1504  0.6434  0.4115
 2186UDC    C1024045  12.262   9.140  17.773 -0.1891  0.2273 -0.4327
 2186UDC    C1124046  12.197   9.096  17.648 -0.3121 -0.1255 -0.7032
 2187UDC     C124047   4.918   9.815   4.710 -0.0221 -0.1358  0.7137
 2187UDC     C224048   4.986   9.788   4.847 -0.7285 -1.0968  1.2219
 2187UDC     C324049   4.866   9.775   4.940 -0.4542  0.7266  0.2539
 2187UDC     C424050   4.893   9.661   5.034 -0.1795  0.9238  0.3823
 2187UDC     C524051   5.018   9.718   5.107 -0.3287 -0.0295  0.6730
 2187UDC     C624052   5.096   9.627   5.193 -0.9000  0.1932  0.3920
 2187UDC     C724053   4.998   9.540   5.275 -0.6090 -0.0849 -0.5298
 2187UDC     C824054   5.080   9.463   5.376  0.6225 -0.0925 -0.8313
 2187UDC     C924055   5.159   9.544   5.481  0.1997 -0.1737  0.2682
 2187UDC    C1024056   5.237   9.436   5.563 -0.1571 -0.3397  0.7273
 2187UDC    C1124057   5.385   9.413   5.509  0.4984  0.1130 -0.1391
 2188UDC     C124058  19.867  14.061  10.452 -0.0646 -0.2155  0.9124
 2188UDC     C224059  19.900  14.183  10.364  0.9504 -0.0102  0.2669
 2188UDC     C324060  20.006  14.283  10.404  0.1406  0.9206 -0.1166
 2188UDC     C424061  19.987  14.367  10.531 -0.2677  0.4903 -0.2791
 2188UDC     C524062  20.014  14.509  10.503  0.2936 -0.7629  0.5590
 2188UDC     C624063  19.962  14.618  10.592 -0.1189 -0.4203  0.1589
 2188UDC     C724064  19.970  14.758  10.528  0.4647  0.5660  0.7536
 2188UDC     C824065  19.899  14.761  10.392  0.4731  0.9483  0.8754
 2188UDC     C924066  19.887  14.899  10.338  0.9180 -0.1002 -0.4684
 2188UDC    C1024067  19.787  14.983  10.417 -0.5290  0.4098 -0.8986
 2188UDC    C1124068  19.743  15.116  10.359  0.4762  0.8782 -0.7922
 2189UDC     C124069   3.800  19.255  15.309  0.3818 -0.9428  0.1791
 2189UDC     C224070   3.656  19.276  15.259 -0.1170 -0.5140  0.5094
 2189UDC     C324071   3.557  19.231  15.371 -0.3124  0.0119 -0.4813
 2189UDC     C424072   3.416  19.241  15.312  0.7671 -0.4210 -0.6864
 2189UDC     C524073   3.315  19.172  15.398 -0.3803 -0.3248 -0.4448
 2189UDC     C624074   3.165  19.171  15.348 -0.3022  0.9087 -0.1234
 2189UDC     C724075   3.133  19.045  15.271 -1.0648  0.1696  0.3929
 2189UDC     C824076   2.979  19.029  15.250  0.8740  0.3811  0.7228
 2189UDC     C924077   2.889  19.083  15.364  0.9279  0.9357 -0.1884
 2189UDC    C1024078   2.744  19.064  15.331  0.7670  0.2760  0.4296
 2189UDC    C1124079   2.669  18.930  15.337 -0.2437 -0.1195 -0.3992
 2190UDC     C124080   0.531   5.920  14.244  0.7927  0.2636 -0.1209
 2190UDC     C224081   0.573   5.945  14.390  0.6932  0.7296  0.2820
 2190UDC     C324082   0.612   6.084  14.418 -0.8591 -1.2006 -0.6778
 2190UDC     C424083   0.760   6.119  14.390 -0.0179 -0.3223  0.0516
 2190UDC     C524084   0.774   6.271  14.380 -0.6619  0.1144  0.0221
 2190UDC     C624085   0.688   6.346  14.267 -0.5385  0.8219  0.8997
 2190UDC     C724086   0.730   6.329  14.115 -0.0219 -0.4144  0.3045
 2190UDC     C824087   0.869   6.367  14.074 -0.6436 -0.5669 -0.2080
 2190UDC     C924088   0.849   6.406  13.932 -0.0760 -0.9136 -0.2746
 2190UDC    C1024089   0.957   6.356  13.838  0.8663  0.4220  0.6280
 2190UDC    C1124090   0.922   6.332  13.692  0.2234  0.1693 -0.5211
 2191UDC     C124091  17.280   3.739  13.317  0.3833 -0.2948  0.1378
 2191UDC     C224092  17.222   3.862  13.386  0.0375 -1.0985 -0.0575
 2191UDC     C324093  17.072   3.906  13.363 -0.9671  0.2421  0.6178
 2191UDC     C424094  17.014   4.033  13.423  0.8172 -0.4145  1.2743
 2191UDC     C524095  17.087   4.087  13.547  0.2296 -1.2287 -0.1492
 2191UDC     C624096  16.970   4.155  13.636 -0.9816 -0.2680  0.1614
 2191UDC     C724097  16.891   4.055  13.730 -1.2075  0.4313  0.5893
 2191UDC     C824098  16.942   4.071  13.869  0.3713  0.2467 -0.0329
 2191UDC     C924099  16.877   3.993  13.979  0.1590  1.1529 -1.0780
 2191UDC    C1024100  16.798   4.081  14.084  0.8539  0.3828 -0.5895
 2191UDC    C1124101  16.727   3.980  14.185  0.1201 -0.7307 -0.2025
 2192UDC     C124102   0.757   9.101   2.963 -0.5485 -1.1858  0.5751
 2192UDC     C224103   0.636   9.138   2.880  0.8773 -0.1756 -1.0347
 2192UDC     C324104   0.526   9.031   2.896  1.0120  0.5509 -1.4128
 2192UDC     C424105   0.579   8.896   2.842 -0.9066  0.1121  0.2696
 2192UDC     C524106   0.610   8.905   2.689 -0.4743 -0.1513  0.5190
 2192UDC     C624107   0.733   8.830   2.632 -1.0112  0.3012 -0.4660
 2192UDC     C724108   0.794   8.882   2.494  0.2945 -0.3215 -1.2498
 2192UDC     C824109   0.908   8.804   2.432 -0.1560  0.8929 -0.3694
 2192UDC     C924110   0.987   8.865   2.314 -0.3503  1.4254 -0.4208
 2192UDC    C1024111   0.939   8.866   2.167 -0.2601 -0.2048 -0.3512
 2192UDC    C1124112   0.802   8.931   2.127  0.1543  1.0966 -0.7742
 2193UDC     C124113  15.524   3.696  14.943  0.0874 -0.2460  0.2617
 2193UDC     C224114  15.420   3.668  15.057  0.0042  0.3482  0.8819
 2193UDC     C324115  15.292   3.591  15.014  0.4454  0.4405  0.1826
 2193UDC     C424116  15.315   3.461  14.931  1.0050  0.3120  0.0631
 2193UDC     C524117  15.197   3.393  14.858 -0.2927  0.1209 -0.1767
 2193UDC     C624118  15.241   3.245  14.820 -0.0786 -0.8861  0.6061
 2193UDC     C724119  15.203   3.122  14.902 -0.4575  0.4712  0.5339
 2193UDC     C824120  15.167   3.005  14.813  0.3318  0.7086 -0.0453
 2193UDC     C924121  15.268   2.883  14.830  0.5810  0.3111  0.6901
 2193UDC    C1024122  15.254   2.811  14.962 -0.7841 -0.7844  1.0177
 2193UDC    C1124123  15.315   2.674  14.947  0.9761  1.1597 -0.0896
 2194UDC     C124124   9.730  19.111   2.774  0.6865 -0.4666  0.0857
 2194UDC     C224125   9.794  19.021   2.879 -0.1437 -1.5557 -0.0716
 2194UDC     C324126   9.874  18.903   2.833  1.0534 -0.0398  0.9979
 2194UDC     C424127   9.792  18.801   2.768  1.0033  0.5872 -0.5930
 2194UDC     C524128   9.858  18.693   2.685  0.0169 -0.6899  0.2235
 2194UDC     C624129   9.996  18.738   2.624 -0.0976  0.9491  0.4650
 2194UDC     C724130  10.041  18.633   2.520 -0.0334 -0.0868 -0.2619
 2194UDC     C824131   9.924  18.583   2.431 -0.1520 -0.2911  0.7058
 2194UDC     C924132   9.975  18.482   2.327 -0.4959  0.2467 -0.4701
 2194UDC    C1024133  10.024  18.366   2.411  0.0197  0.4772 -0.0743
 2194UDC    C1124134  10.120  18.257   2.354 -1.3951  0.5215 -0.0192
 2195UDC     C124135   5.202   0.403  17.185 -0.3544  0.3140  1.1560
 2195UDC     C224136   5.270   0.538  17.197  0.1734 -0.7031 -1.5398
 2195UDC     C324137   5.307   0.583  17.058 -0.7127 -0.2077  0.2162
 2195UDC     C424138   5.370   0.720  17.066 -0.3762 -0.0900 -0.7953
 2195UDC     C524139   5.411   0.766  16.921  0.0233 -0.5775  0.9056
 2195UDC     C624140   5.512   0.878  16.955  0.1131 -0.4614  0.0432
 2195UDC     C724141   5.607   0.886  16.836 -0.0057 -0.1468  0.3580
 2195UDC     C824142   5.701   0.776  16.795 -1.0725  0.8260 -0.6801
 2195UDC     C924143   5.774   0.826  16.670 -0.2997 -0.4544 -0.5697
 2195UDC    C1024144   5.659   0.836  16.561  0.1066 -0.8742 -0.4744
 2195UDC    C1124145   5.714   0.877  16.420  1.1767 -0.3193 -0.3047
 2196UDC     C124146  14.244  18.006  12.885 -0.7298  0.4285 -0.2435
 2196UDC     C224147  14.260  18.098  13.001 -0.2088 -0.4880 -0.4654
 2196UDC     C324148  14.247  18.246  12.962  0.0564 -0.3263  0.1401
 2196UDC     C424149  14.202  18.346  13.066 -0.6436 -1.0077 -0.3169
 2196UDC     C524150  14.051  18.385  13.059 -1.1131  0.6942  0.5341
 2196UDC     C624151  14.022  18.478  12.948  0.3215  0.3907  0.5665
 2196UDC     C724152  14.051  18.631  12.959  0.3586 -0.0578 -0.0018
 2196UDC     C824153  14.058  18.699  12.814 -0.2902 -0.0717 -0.3862
 2196UDC     C924154  14.062  18.854  12.830 -0.0529 -0.6653  0.9011
 2196UDC    C1024155  14.100  18.938  12.703 -0.9648 -0.4791  0.1874
 2196UDC    C1124156  14.251  18.904  12.671  1.0139 -0.3712  0.3012
 2197UDC     C124157  16.820   9.686   5.074  0.7102 -0.0327 -1.3521
 2197UDC     C224158  16.806   9.534   5.077  0.0501  1.1143 -0.4904
 2197UDC     C324159  16.657   9.502   5.121 -0.9153  0.3100 -0.3746
 2197UDC     C424160  16.610   9.611   5.221  0.3832 -0.0011 -0.1721
 2197UDC     C524161  16.488   9.593   5.301 -0.1639  0.3353  0.0467
 2197UDC     C624162  16.363   9.578   5.213  0.7089  0.1209 -0.7565
 2197UDC     C724163  16.241   9.613   5.296  0.3990 -0.1014  0.6580
 2197UDC     C824164  16.286   9.694   5.412 -0.6945  0.5732  0.7491
 2197UDC     C924165  16.164   9.740   5.492  0.3689  0.8249 -0.3694
 2197UDC    C1024166  16.068   9.836   5.421  0.0611 -0.1789  0.2836
 2197UDC    C1124167  15.934   9.876   5.501  0.9766  1.1348  0.6041
 2198UDC     C124168  15.606   6.351  18.300  0.7265 -0.1211 -0.2692
 2198UDC     C224169  15.584   6.502  18.350  0.7347 -0.2996  0.2801
 2198UDC     C324170  15.715   6.580  18.344 -0.3333  0.4619  0.1809
 2198UDC     C424171  15.718   6.712  18.423 -0.0407  0.3478  1.1012
 2198UDC     C524172  15.855   6.774  18.464  0.5742  0.8691  0.3156
 2198UDC     C624173  15.969   6.806  18.360  1.4945  0.1010 -0.0172
 2198UDC     C724174  16.085   6.879  18.430  1.6959  1.1831  0.5494
 2198UDC     C824175  16.128   7.015  18.374  0.2628  0.0465  0.7332
 2198UDC     C924176  16.241   7.101  18.435  0.0644  0.8034 -1.0007
 2198UDC    C1024177  16.297   7.228  18.363 -0.8846  1.0524  0.7973
 2198UDC    C1124178  16.355   7.182  18.223  0.6355 -0.6126 -0.4187
 2199UDC     C124179  15.282   0.375  16.396 -0.3840  0.3863 -0.0617
 2199UDC     C224180  15.189   0.269  16.332 -0.2432 -0.2016 -0.2327
 2199UDC     C324181  15.096   0.213  16.447 -0.0203 -0.4423  0.0033
 2199UDC     C424182  15.191   0.145  16.545  0.6859 -0.0388  0.1829
 2199UDC     C524183  15.127   0.105  16.674  0.6794 -0.3349  1.2536
 2199UDC     C624184  15.210   0.082  16.797  1.1711  0.3179 -0.7401
 2199UDC     C724185  15.130   0.051  16.925 -0.6576 -0.5861 -1.2040
 2199UDC     C824186  15.030  -0.067  16.920 -0.3539 -1.6948  0.0350
 2199UDC     C924187  14.972  -0.124  17.047 -0.0837 -0.1776  0.4697
 2199UDC    C1024188  14.876  -0.246  17.036  0.4560  0.0121  0.1956
 2199UDC    C1124189  14.818  -0.295  17.168 -0.2049  0.6360 -1.1080
 2200UDC     C124190   2.458   2.802   1.184  0.3295 -1.0496  0.3608
 2200UDC     C224191   2.367   2.913   1.235  0.7509 -0.3605 -0.2370
 2200UDC     C324192   2.426   3.047   1.184 -0.1634  0.0696 -0.2163
 2200UDC     C424193   2.327   3.151   1.233 -0.5257 -0.8237  0.5687
 2200UDC     C524194   2.317   3.141   1.384 -0.1240 -0.9070  0.3449
 2200UDC     C624195   2.218   3.248   1.427 -0.0443 -2.0355 -1.2229
 2200UDC     C724196   2.180   3.237   1.577  0.6407 -0.1308 -0.3754
 2200UDC     C824197   2.287   3.206   1.686  0.4048 -0.2094 -0.8422
 2200UDC     C924198   2.207   3.162   1.803  0.5166  0.3325 -0.4439
 2200UDC    C1024199   2.293   3.113   1.917 -0.1474 -0.3670 -0.0631
 2200UDC    C1124200   2.381   2.998   1.877 -0.6362  0.5360  0.1928
 2201UDC     C124201  18.222  14.094  12.227 -0.8721 -0.2407 -0.5393
 2201UDC     C224202  18.239  14.195  12.112  0.0928  0.4062 -0.1346
 2201UDC     C324203  18.250  14.344  12.138  0.0472  0.1657 -0.6831
 2201UDC     C424204  18.272  14.435  12.027 -0.9347 -0.2946  1.0926
 2201UDC     C524205  18.150  14.528  12.013  0.3685 -0.5567  0.1399
 2201UDC     C624206  18.022  14.456  11.962  0.3148 -1.0034  0.4390
 2201UDC     C724207  18.060  14.388  11.833 -0.0435 -0.8221  0.6219
 2201UDC     C824208  17.942  14.332  11.743 -1.0391  0.4777 -0.1662
 2201UDC     C924209  17.874  14.209  11.801 -1.1155  0.5357  0.1502
 2201UDC    C1024210  17.791  14.139  11.689 -1.5932  0.2017  0.1318
 2201UDC    C1124211  17.670  14.211  11.627 -0.6884 -1.0012  0.8036
 2202UDC     C124212   2.257   4.936   8.304  0.6414 -0.5878 -0.5875
 2202UDC     C224213   2.115   4.938   8.248 -0.3571 -0.1757 -0.0170
 2202UDC     C324214   2.114   4.859   8.118 -0.4751 -0.1745 -0.2063
 2202UDC     C424215   1.976   4.848   8.043 -1.0224  0.0465  0.8340
 2202UDC     C524216   1.962   4.729   7.945  0.6710 -0.9923  0.6825
 2202UDC     C624217   2.090   4.721   7.852 -0.1805 -1.0540 -0.6860
 2202UDC     C724218   2.131   4.597   7.762  1.3531  0.2813 -0.4895
 2202UDC     C824219   2.235   4.616   7.644 -0.4469  0.1377 -0.7993
 2202UDC     C924220   2.179   4.714   7.545 -0.4477  0.4374  1.1859
 2202UDC    C1024221   2.287   4.784   7.457 -0.9308 -0.7505 -0.1896
 2202UDC    C1124222   2.244   4.880   7.350  0.4123 -0.7026 -0.9488
 2203UDC     C124223  16.660  14.927   6.794  0.1089 -1.7113 -0.2260
 2203UDC     C224224  16.646  15.065   6.718 -1.3110  0.5608  0.6493
 2203UDC     C324225  16.511  15.127   6.749  0.7870  0.2285  0.0883
 2203UDC     C424226  16.479  15.246   6.655  0.1881  0.0819 -0.1185
 2203UDC     C524227  16.361  15.329   6.701  0.6513 -0.3583 -1.1604
 2203UDC     C624228  16.346  15.454   6.615  0.4316  0.1672 -0.1724
 2203UDC     C724229  16.391  15.420   6.469 -0.7744 -1.0273 -1.5838
 2203UDC     C824230  16.375  15.528   6.360 -0.4385 -0.0347 -0.1487
 2203UDC     C924231  16.401  15.675   6.411 -0.5069  0.0264 -0.6271
 2203UDC    C1024232  16.538  15.695   6.474 -0.6911 -0.6278  0.4637
 2203UDC    C1124233  16.574  15.833   6.539  0.3962 -0.2468  0.0402
 2204UDC     C124234  18.303   0.107   2.415 -0.4047 -0.8174 -0.5678
 2204UDC     C224235  18.166   0.086   2.362  0.6792  0.4657 -0.0280
 2204UDC     C324236  18.146   0.116   2.215  0.3699  0.3398  0.5203
 2204UDC     C424237  18.024   0.209   2.198  0.0376 -0.2535  0.0957
 2204UDC     C524238  17.886   0.135   2.211 -1.2110  0.2152 -0.0874
 2204UDC     C624239  17.824   0.080   2.087 -0.4465  0.7920 -0.6870
 2204UDC     C724240  17.687   0.144   2.058 -0.6254 -0.4267 -0.2368
 2204UDC     C824241  17.604   0.083   1.946 -1.0551 -0.4529 -0.8146
 2204UDC     C924242  17.582  -0.064   1.974  0.1759 -0.1481 -0.0111
 2204UDC    C1024243  17.440  -0.095   2.006 -0.7730  0.0608  0.5626
 2204UDC    C1124244  17.327  -0.020   1.939  0.8127 -0.5333 -0.0400
 2205UDC     C124245   3.765   8.026  13.746 -0.4236  0.8498  0.4146
 2205UDC     C224246   3.637   8.103  13.790  0.7072  1.3750 -0.1710
 2205UDC     C324247   3.552   8.082  13.918 -0.2393  0.1066 -1.0661
 2205UDC     C424248   3.457   7.960  13.911 -0.2078 -0.5806 -0.1107
 2205UDC     C524249   3.359   7.960  14.035  0.2416  0.1128  1.1778
 2205UDC     C624250   3.233   7.875  14.021 -0.4993  0.5331  0.0853
 2205UDC     C724251   3.157   7.835  14.156  0.1246 -0.2735 -0.0608
 2205UDC     C824252   3.045   7.730  14.136 -0.1081 -0.9741  0.7153
 2205UDC     C924253   2.919   7.821  14.146 -0.3836 -0.0521  0.3797
 2205UDC    C1024254   2.794   7.752  14.085  0.8854  0.5152  0.9397
 2205UDC    C1124255   2.668   7.806  14.154  0.1684  0.2440 -1.1217
 2206UDC     C124256  15.147   3.731   8.279 -0.2470 -1.1105  0.3560
 2206UDC     C224257  15.295   3.747   8.327  1.3733 -0.1202 -0.2578
 2206UDC     C324258  15.333   3.899   8.295  0.1816 -0.2606  0.2963
 2206UDC     C424259  15.411   3.915   8.158 -0.0004  0.0184  0.1232
 2206UDC     C524260  15.425   4.056   8.098 -0.3524 -0.1940 -0.3161
 2206UDC     C624261  15.512   4.147   8.187 -0.4183  0.6795 -0.7475
 2206UDC     C724262  15.580   4.267   8.116  1.0493 -0.4846  1.5020
 2206UDC     C824263  15.492   4.381   8.054  0.6494 -0.0547 -0.1573
 2206UDC     C924264  15.574   4.475   7.960  1.1459 -0.0966 -0.4359
 2206UDC    C1024265  15.494   4.593   7.889 -0.7898 -0.5127 -0.9345
 2206UDC    C1124266  15.567   4.668   7.772  1.3705  0.7346 -0.1135
 2207UDC     C124267   8.136  14.467   3.144  0.3613 -0.4006  0.9906
 2207UDC     C224268   8.162  14.608   3.179  0.4681 -1.0262  0.1884
 2207UDC     C324269   8.193  14.710   3.060  0.1675 -0.6291  0.1519
 2207UDC     C424270   8.097  14.727   2.940 -0.4823 -0.1046 -0.3041
 2207UDC     C524271   8.168  14.819   2.844  0.9206  0.0390 -0.9674
 2207UDC     C624272   8.089  14.876   2.721 -0.2376  0.2809 -0.7419
 2207UDC     C724273   8.021  14.773   2.631  1.2900  0.1941  0.7030
 2207UDC     C824274   7.977  14.864   2.520 -0.3366  0.8982  0.2819
 2207UDC     C924275   7.872  14.966   2.545 -0.6649 -0.4756 -0.7462
 2207UDC    C1024276   7.823  15.047   2.422 -0.6900  0.1576 -0.2278
 2207UDC    C1124277   7.946  15.057   2.328  1.5021 -0.0644 -0.4746
 2208UDC     C124278  14.406  18.396   6.082 -0.2848  0.7686  1.3749
 2208UDC     C224279  14.459  18.269   6.157 -0.7796  0.3306  0.8203
 2208UDC     C324280  14.358  18.173   6.208 -0.2852 -0.1476 -0.5929
 2208UDC     C424281  14.444  18.077   6.287 -0.0565  0.0579  0.6587
 2208UDC     C524282  14.534  17.994   6.195  1.0643 -0.5995  0.2303
 2208UDC     C624283  14.636  17.890   6.255  0.2382  0.3806 -0.1878
 2208UDC     C724284  14.697  17.920   6.384 -0.1349  0.6662 -0.6061
 2208UDC     C824285  14.792  18.042   6.394  0.1195  1.6296  0.3008
 2208UDC     C924286  14.817  18.072   6.548  0.1146  0.1740  0.7877
 2208UDC    C1024287  14.862  18.211   6.598  0.0329  0.4202 -0.5855
 2208UDC    C1124288  15.000  18.237   6.547  0.0265 -0.4699 -0.2367
 2209UDC     C124289  15.257   9.034   5.954 -0.1554  0.0412  0.6282
 2209UDC     C224290  15.279   8.883   5.939 -0.8919  0.5733  0.1895
 2209UDC     C324291  15.342   8.802   5.827  0.7486 -0.8594 -0.8346
 2209UDC     C424292  15.317   8.656   5.834  0.1867  0.9624  0.2354
 2209UDC     C524293  15.328   8.573   5.968  0.9401  0.4738 -0.1776
 2209UDC     C624294  15.336   8.419   5.966  1.0119  1.4971  0.9274
 2209UDC     C724295  15.334   8.373   5.818 -0.4591  0.6191 -0.0484
 2209UDC     C824296  15.374   8.230   5.778 -0.1377  0.5557  0.1513
 2209UDC     C924297  15.394   8.200   5.628 -0.4192 -0.6572  0.0099
 2209UDC    C1024298  15.451   8.060   5.592 -0.5460  0.2277  0.1562
 2209UDC    C1124299  15.467   8.003   5.452  0.5486  0.5500  0.1034
 2210UDC     C124300  13.255  12.372  12.280 -0.3821  0.6882 -0.6179
 2210UDC     C224301  13.178  12.506  12.276  0.1503 -0.9288 -1.0164
 2210UDC     C324302  13.044  12.507  12.346  0.2669  0.0367  0.2302
 2210UDC     C424303  13.035  12.560  12.486 -0.4079 -0.0873  0.5058
 2210UDC     C524304  13.094  12.709  12.472  0.2955  0.1634  0.0909
 2210UDC     C624305  13.141  12.779  12.600  0.0050  0.1931  0.1323
 2210UDC     C724306  13.206  12.682  12.695 -0.0885  0.4513  1.0992
 2210UDC     C824307  13.215  12.731  12.840 -0.8158  0.3156  0.6813
 2210UDC     C924308  13.303  12.634  12.924  1.1258  0.3523  0.4983
 2210UDC    C1024309  13.292  12.690  13.068  0.4017  0.3365 -0.1444
 2210UDC    C1124310  13.158  12.636  13.113  0.6254  0.6217 -0.2274
 2211UDC     C124311   6.690   1.573  10.994 -0.3783 -0.3875 -0.7600
 2211UDC     C224312   6.717   1.542  11.144  1.0239 -0.5009  0.8856
 2211UDC     C324313   6.841   1.630  11.186 -0.9093  0.1963 -0.1542
 2211UDC     C424314   6.909   1.609  11.326 -0.5294  0.6769 -0.7678
 2211UDC     C524315   6.937   1.462  11.377 -0.5372  0.0795 -0.2289
 2211UDC     C624316   7.038   1.446  11.495  0.2559  1.1183 -0.2666
 2211UDC     C724317   6.988   1.373  11.619 -0.5321  0.0528 -2.1208
 2211UDC     C824318   7.091   1.364  11.744  0.6157  0.2569 -0.1154
 2211UDC     C924319   7.060   1.367  11.887 -0.5399 -0.5144 -0.6020
 2211UDC    C1024320   7.182   1.379  11.988 -0.6187  1.0863  0.3654
 2211UDC    C1124321   7.251   1.511  11.985 -0.3584 -0.1242 -0.7338
 2212UDC     C124322   9.021  14.511  14.080  0.8663  0.2884  0.2932
 2212UDC     C224323   8.877  14.554  14.041 -0.0111  0.4661  0.1629
 2212UDC     C324324   8.847  14.550  13.885  0.0663 -0.4543 -0.7632
 2212UDC     C424325   8.813  14.412  13.815 -0.4583  0.8884 -0.1672
 2212UDC     C524326   8.669  14.364  13.840  0.0314 -0.2192  0.6961
 2212UDC     C624327   8.622  14.230  13.782  0.1277 -0.3399 -0.4966
 2212UDC     C724328   8.507  14.169  13.874 -0.4356 -1.3889 -0.6615
 2212UDC     C824329   8.378  14.117  13.811 -0.2761 -0.3402  0.2389
 2212UDC     C924330   8.259  14.167  13.890  1.2830  0.0176 -1.2596
 2212UDC    C1024331   8.118  14.129  13.846  1.2419 -1.7319  0.6757
 2212UDC    C1124332   8.073  14.197  13.711  0.0371 -0.4906 -0.1155
 2213UDC     C124333   4.805   1.442  17.098  0.0599  0.1929  1.0299
 2213UDC     C224334   4.781   1.470  17.246 -0.0954  1.2917  0.0777
 2213UDC     C324335   4.775   1.613  17.302  0.4311 -0.7625 -1.1025
 2213UDC     C424336   4.803   1.682  17.166  0.9975 -0.0988 -0.3350
 2213UDC     C524337   4.810   1.832  17.179  0.5100  0.2260 -0.0317
 2213UDC     C624338   4.849   1.896  17.043 -0.1614  1.3195 -0.6911
 2213UDC     C724339   4.863   2.044  17.062  0.8565 -0.8265  1.2103
 2213UDC     C824340   4.752   2.118  17.136 -0.3248 -0.6569 -0.0951
 2213UDC     C924341   4.805   2.260  17.179  0.0971 -0.9311 -0.1855
 2213UDC    C1024342   4.681   2.319  17.246 -0.0485  0.0883  0.4855
 2213UDC    C1124343   4.652   2.266  17.379 -1.0486 -0.0379 -1.0655
 2214UDC     C124344  19.606  17.722   0.784 -0.1506 -0.0252  1.1043
 2214UDC     C224345  19.692  17.789   0.883  0.6326 -0.7503  0.2843
 2214UDC     C324346  19.619  17.909   0.949  0.9711  0.5742 -0.2233
 2214UDC     C424347  19.711  17.965   1.063  0.2087 -0.4785  0.5626
 2214UDC     C524348  19.853  18.009   1.031 -1.0617 -0.1968  0.3529
 2214UDC     C624349  19.928  18.092   1.143 -0.0127 -0.1329  0.8218
 2214UDC     C724350  19.944  18.018   1.280 -0.5496  0.9150  0.7377
 2214UDC     C824351  20.048  17.904   1.277 -0.9457 -0.6495 -1.1396
 2214UDC     C924352  20.084  17.867   1.421  0.7285 -0.0020  1.2945
 2214UDC    C1024353  20.151  17.725   1.450 -0.4162  0.6936 -0.1085
 2214UDC    C1124354  20.045  17.643   1.521  1.0096  0.1293 -0.5312
 2215UDC     C124355  13.642  15.280  16.117  0.0058  0.0135 -0.0898
 2215UDC     C224356  13.780  15.222  16.082 -0.7086 -0.6670  0.1778
 2215UDC     C324357  13.871  15.216  16.202 -0.6070  0.1706  0.3710
 2215UDC     C424358  13.994  15.155  16.133 -0.2111 -0.2553  0.0495
 2215UDC     C524359  13.965  15.008  16.116 -0.1544  0.9540  0.3172
 2215UDC     C624360  14.077  14.918  16.059  0.7566  0.0799  0.2769
 2215UDC     C724361  14.039  14.771  16.037  0.3271  0.4891  0.6523
 2215UDC     C824362  14.147  14.681  15.987 -0.0952 -0.4722  0.0123
 2215UDC     C924363  14.245  14.626  16.097 -0.2949  1.1325  0.0145
 2215UDC    C1024364  14.179  14.539  16.198  0.4850  0.2326 -0.5324
 2215UDC    C1124365  14.150  14.399  16.151  1.0347  0.1434 -0.4658
 2216UDC     C124366  15.216  11.300   6.729 -0.6305 -0.6435 -0.5114
 2216UDC     C224367  15.267  11.269   6.877  0.5909 -0.7922  0.0823
 2216UDC     C324368  15.405  11.311   6.930  0.5451 -0.2505  0.0904
 2216UDC     C424369  15.524  11.274   6.834 -0.3692  1.0002  0.4321
 2216UDC     C524370  15.663  11.339   6.859  0.7680 -0.4251 -0.8200
 2216UDC     C624371  15.773  11.276   6.772  1.2436  0.6569 -1.1101
 2216UDC     C724372  15.794  11.337   6.640  1.4134  0.0551 -0.4859
 2216UDC     C824373  15.866  11.254   6.544 -0.4030  0.1140 -0.5568
 2216UDC     C924374  15.872  11.314   6.410 -0.4675 -0.2319  0.0290
 2216UDC    C1024375  15.940  11.456   6.419 -0.2855  0.2407  0.2200
 2216UDC    C1124376  15.962  11.525   6.287 -0.2177  0.9756 -0.3275
 2217UDC     C124377   8.945  19.818  14.243  0.0135 -0.2193  0.5902
 2217UDC     C224378   9.082  19.808  14.169 -0.1199  0.2796 -0.5157
 2217UDC     C324379   9.211  19.833  14.253 -0.1286  1.0820 -0.5548
 2217UDC     C424380   9.271  19.694  14.304  0.1638  0.7024 -1.1361
 2217UDC     C524381   9.294  19.581  14.191  1.0652 -0.9101 -0.0402
 2217UDC     C624382   9.389  19.655  14.085  0.1170 -0.2491  0.3326
 2217UDC     C724383   9.406  19.594  13.941  0.6705 -0.1936 -0.4612
 2217UDC     C824384   9.353  19.448  13.955 -0.6339  0.2116  0.0594
 2217UDC     C924385   9.349  19.373  13.819  0.0668 -0.4423 -0.8981
 2217UDC    C1024386   9.317  19.222  13.837 -1.4595 -0.2437 -0.7449
 2217UDC    C1124387   9.399  19.133  13.937 -0.5179  0.0496  0.8308
 2218UDC     C124388   1.607  15.892  16.698  0.6548 -0.5462  0.2229
 2218UDC     C224389   1.620  15.902  16.544 -1.3192  0.3178  1.0879
 2218UDC     C324390   1.706  15.773  16.514 -0.0775  0.2659  0.4241
 2218UDC     C424391   1.769  15.772  16.373 -0.2616  1.4018  0.6699
 2218UDC     C524392   1.853  15.898  16.360 -0.9988 -0.1985 -0.1209
 2218UDC     C624393   1.957  15.908  16.250 -0.1609  0.2701 -0.8604
 2218UDC     C724394   2.022  16.045  16.216 -1.4293  0.3811 -0.1426
 2218UDC     C824395   2.162  16.041  16.164  0.6913  0.7733  0.0530
 2218UDC     C924396   2.253  16.004  16.284  0.0567 -0.6120  0.7646
 2218UDC    C1024397   2.402  16.028  16.271 -0.6491  0.1340 -1.1938
 2218UDC    C1124398   2.498  15.977  16.388 -0.2688 -0.6061  0.9783
 2219UDC     C124399  12.183   6.189  16.027  0.2980  0.9516  0.3894
 2219UDC     C224400  12.265   6.091  15.936 -0.2970  1.2939  0.1752
 2219UDC     C324401  12.418   6.090  15.949 -0.3778 -0.5771  0.0922
 2219UDC     C424402  12.437   6.098  16.103  0.3347  0.8766  0.7021
 2219UDC     C524403  12.582   6.104  16.158 -0.3682  0.0070  0.9115
 2219UDC     C624404  12.681   6.006  16.100 -0.0808  0.2004  1.2706
 2219UDC     C724405  12.702   5.884  16.189  1.3182 -0.0239 -1.0706
 2219UDC     C824406  12.852   5.843  16.205 -0.3362 -0.7544 -1.2106
 2219UDC     C924407  12.876   5.714  16.282 -0.0882  0.2441  0.5625
 2219UDC    C1024408  12.880   5.598  16.185  1.3794 -0.0224 -0.5053
 2219UDC    C1124409  12.828   5.465  16.250 -0.0041 -0.0701  0.4987
 2220UDC     C124410   0.502  11.477  14.340 -0.4012  0.3615  1.1968
 2220UDC     C224411   0.480  11.558  14.216  0.5113 -0.0360  0.0329
 2220UDC     C324412   0.336  11.540  14.153 -0.6386  1.1210  0.4644
 2220UDC     C424413   0.237  11.578  14.255 -0.5161 -0.3362  0.4121
 2220UDC     C524414   0.086  11.569  14.218 -0.0807  0.1153  0.6561
 2220UDC     C624415   0.019  11.694  14.156  0.3600  1.6596  0.4059
 2220UDC     C724416  -0.115  11.662  14.088  0.9062 -0.0180  0.3445
 2220UDC     C824417  -0.223  11.591  14.182 -0.7216  0.2424  0.7054
 2220UDC     C924418  -0.353  11.666  14.148  0.9805  0.5932  0.1554
 2220UDC    C1024419  -0.333  11.813  14.118 -0.0349 -0.8944  0.1917
 2220UDC    C1124420  -0.445  11.913  14.071  0.0776 -0.1163  0.0148
 2221UDC     C124421  18.481  18.566  14.318  0.5079 -0.7762 -0.1503
 2221UDC     C224422  18.341  18.512  14.307  0.1470  0.5510  0.2112
 2221UDC     C324423  18.243  18.568  14.407  0.0518  0.6401 -0.3898
 2221UDC     C424424  18.288  18.664  14.524 -0.7464 -0.5404  1.1943
 2221UDC     C524425  18.155  18.691  14.587 -0.0872  0.4748  0.0951
 2221UDC     C624426  18.171  18.803  14.689 -0.4289 -0.0217  0.8740
 2221UDC     C724427  18.207  18.723  14.819  0.3953 -0.2224  0.4640
 2221UDC     C824428  18.214  18.796  14.955 -0.1726  0.0856  1.0017
 2221UDC     C924429  18.104  18.892  15.006  0.0271  0.2453 -0.0459
 2221UDC    C1024430  17.971  18.815  15.024  0.2698 -0.2276  0.3595
 2221UDC    C1124431  17.848  18.897  15.060 -0.3711 -0.7185  0.5628
 2222UDC     C124432  18.195   7.959  10.337  0.3484  0.1677  0.6598
 2222UDC     C224433  18.265   7.838  10.263 -0.5303  0.5321 -0.4413
 2222UDC     C324434  18.342   7.759  10.374  0.4103 -0.4528  0.1969
 2222UDC     C424435  18.410   7.629  10.331 -0.2793 -0.7869 -0.1063
 2222UDC     C524436  18.481   7.587  10.460  0.0534  0.1165 -0.0555
 2222UDC     C624437  18.615   7.658  10.510  0.4199 -1.3729  0.1329
 2222UDC     C724438  18.595   7.791  10.583 -0.1547  0.7937  0.1548
 2222UDC     C824439  18.682   7.795  10.713  0.1565  0.3563 -1.8670
 2222UDC     C924440  18.654   7.696  10.831 -0.3037  1.2640  0.0578
 2222UDC    C1024441  18.763   7.687  10.942 -0.4958 -0.7160 -0.2354
 2222UDC    C1124442  18.869   7.578  10.956 -0.4599  0.2022  0.6449
 2223UDC     C124443  15.296   5.904   6.898  0.0946 -0.5958  0.9484
 2223UDC     C224444  15.238   5.885   7.044  1.2942 -0.0326  0.0458
 2223UDC     C324445  15.143   5.996   7.085 -0.1444  0.6064 -0.5692
 2223UDC     C424446  15.168   6.051   7.226 -0.3044 -0.4045 -0.9167
 2223UDC     C524447  15.149   6.207   7.222 -0.1390 -0.5425 -0.9949
 2223UDC     C624448  15.210   6.284   7.338 -0.6334 -0.4666  0.8505
 2223UDC     C724449  15.170   6.432   7.333  0.4552  0.3202  0.2861
 2223UDC     C824450  15.198   6.486   7.190 -0.5189  0.0414  0.7478
 2223UDC     C924451  15.355   6.499   7.168  0.0493  0.7779  0.6035
 2223UDC    C1024452  15.377   6.597   7.048 -0.6809 -0.4172  0.2575
 2223UDC    C1124453  15.516   6.620   6.985 -0.7092  0.3081 -0.7926
 2224UDC     C124454  18.788  17.442  11.070 -0.0348  0.0212  0.4733
 2224UDC     C224455  18.749  17.293  11.088 -0.7785 -1.2511 -0.0468
 2224UDC     C324456  18.613  17.248  11.139  0.0606 -0.5993 -0.0927
 2224UDC     C424457  18.620  17.099  11.168 -0.4975  0.2797  0.7587
 2224UDC     C524458  18.704  17.049  11.288 -0.2061 -0.1922 -0.3983
 2224UDC     C624459  18.684  16.897  11.312  0.6303  0.5723 -0.1566
 2224UDC     C724460  18.557  16.814  11.296 -0.5564  1.1161 -0.4412
 2224UDC     C824461  18.463  16.801  11.425  0.1610  0.4898  1.0758
 2224UDC     C924462  18.391  16.934  11.445 -0.5726 -0.9949  0.6357
 2224UDC    C1024463  18.284  16.934  11.557  0.8733 -0.1088  0.5675
 2224UDC    C1124464  18.209  17.070  11.592  1.1276  0.1825 -1.4248
 2225UDC     C124465  11.890  11.979   9.410 -0.3602  0.2263 -0.0223
 2225UDC     C224466  11.857  11.847   9.328 -0.4546 -0.5336  0.3287
 2225UDC     C324467  11.901  11.713   9.377 -0.2457 -0.5377  1.2860
 2225UDC     C424468  11.867  11.608   9.266  0.6627  0.3727 -1.6321
 2225UDC     C524469  11.733  11.531   9.291  0.1772  0.2447  0.4318
 2225UDC     C624470  11.777  11.385   9.324  0.2522  0.2064  0.1086
 2225UDC     C724471  11.836  11.331   9.191  0.3669  0.6210  0.3735
 2225UDC     C824472  11.861  11.185   9.194  0.1733  0.9153  0.0266
 2225UDC     C924473  11.919  11.121   9.071  0.1873  1.1952 -0.3659
 2225UDC    C1024474  11.959  10.977   9.103 -0.1881  0.3466 -0.3154
 2225UDC    C1124475  12.082  10.944   9.184  0.9049 -0.7375 -0.0214
 2226UDC     C124476   7.606   7.384  17.982 -0.5988  0.1283  0.3707
 2226UDC     C224477   7.598   7.238  18.039 -0.4126 -0.2055  1.4579
 2226UDC     C324478   7.555   7.122  17.949 -1.0650 -1.2078  0.2130
 2226UDC     C424479   7.556   6.985  18.009  0.2536 -0.1685  0.7902
 2226UDC     C524480   7.488   6.884  17.914 -0.2099  0.3876 -0.5675
 2226UDC     C624481   7.565   6.872  17.783  0.6939 -0.8257 -0.2022
 2226UDC     C724482   7.492   6.834  17.655  0.1519  0.4865  0.0157
 2226UDC     C824483   7.372   6.937  17.634 -0.3115  1.5866 -1.1748
 2226UDC     C924484   7.286   6.901  17.515 -0.0463  0.4447  0.1326
 2226UDC    C1024485   7.167   6.990  17.479  0.4783 -0.2943  0.2819
 2226UDC    C1124486   7.125   6.963  17.330 -1.1835 -0.1399 -0.1270
 2227UDC     C124487  17.973  14.439   3.198 -0.1663  0.1355  0.9356
 2227UDC     C224488  18.014  14.386   3.327 -0.4356 -0.1137  0.2634
 2227UDC     C324489  17.966  14.473   3.441 -0.9192 -0.1566 -0.0467
 2227UDC     C424490  17.931  14.619   3.403  1.3326  0.3120  0.2316
 2227UDC     C524491  17.788  14.670   3.442 -0.0404 -0.1852 -0.6072
 2227UDC     C624492  17.762  14.827   3.399  0.6697  0.2273 -0.0676
 2227UDC     C724493  17.629  14.853   3.463  1.0611  0.0908 -0.2176
 2227UDC     C824494  17.625  14.804   3.611  0.5528  0.0503  0.3024
 2227UDC     C924495  17.545  14.886   3.710 -0.4943  0.6873 -0.8130
 2227UDC    C1024496  17.550  14.840   3.858  0.2493  1.4090 -0.0564
 2227UDC    C1124497  17.428  14.793   3.926  0.1411  0.3489 -0.6007
 2228UDC     C124498   3.425   6.579   5.911  0.2279  1.1439 -0.2435
 2228UDC     C224499   3.563   6.613   5.863  0.5324 -1.4790 -0.9035
 2228UDC     C324500   3.612   6.531   5.743  0.4914  0.3631 -0.9857
 2228UDC     C424501   3.726   6.584   5.670  0.1920 -0.5138  0.4806
 2228UDC     C524502   3.713   6.588   5.519  0.5292  0.8127  0.8819
 2228UDC     C624503   3.820   6.676   5.453 -0.4816  0.2086 -1.0289
 2228UDC     C724504   3.763   6.814   5.432 -0.1784 -0.3623 -0.8734
 2228UDC     C824505   3.833   6.910   5.336 -0.2364 -1.2179 -0.3537
 2228UDC     C924506   3.838   6.832   5.202 -0.8565  0.4426 -0.1175
 2228UDC    C1024507   3.841   6.926   5.078 -0.4330 -0.1238 -0.6416
 2228UDC    C1124508   3.929   6.875   4.967  0.0369  0.6118  0.4613
 2229UDC     C124509  12.875  19.132   6.748  0.0619  0.3941  0.8413
 2229UDC     C224510  12.753  19.209   6.806 -0.1979 -0.2706 -0.8505
 2229UDC     C324511  12.743  19.353   6.763 -0.1681 -0.9191 -0.7980
 2229UDC     C424512  12.646  19.454   6.838 -0.2409  0.2711 -1.3654
 2229UDC     C524513  12.656  19.588   6.768  0.4336  0.3187 -0.0286
 2229UDC     C624514  12.557  19.685   6.829 -1.1516 -0.6968  0.5520
 2229UDC     C724515  12.419  19.628   6.855  0.3443  0.5399 -0.9960
 2229UDC     C824516  12.330  19.713   6.946 -0.4662  0.3543 -0.0938
 2229UDC     C924517  12.351  19.852   6.876 -0.4305 -0.1079 -0.5062
 2229UDC    C1024518  12.234  19.888   6.773 -1.1347 -0.2424 -0.5237
 2229UDC    C1124519  12.233  20.044   6.746 -0.3732  0.9029 -0.5031
 2230UDC     C124520  10.326   3.444  10.257  0.4668 -0.4019  0.4549
 2230UDC     C224521  10.319   3.473  10.404  1.0503 -0.6550  1.7418
 2230UDC     C324522  10.181   3.480  10.476 -0.1644 -1.0821  0.8586
 2230UDC     C424523  10.094   3.594  10.415 -0.3049  1.3225 -1.0719
 2230UDC     C524524  10.024   3.689  10.525  0.7328  0.6219  0.7286
 2230UDC     C624525  10.119   3.777  10.602 -0.6458 -1.4638 -0.1336
 2230UDC     C724526  10.055   3.853  10.720  0.1257  0.2435 -0.7370
 2230UDC     C824527  10.143   3.969  10.757 -0.7954 -0.6954 -0.3851
 2230UDC     C924528  10.269   3.922  10.841  0.0177  0.6358 -0.8692
 2230UDC    C1024529  10.366   4.041  10.869 -0.4846 -0.7287  0.7947
 2230UDC    C1124530  10.467   4.001  10.977  0.1372  0.5619 -0.0959
 2231UDC     C124531   3.002   6.539  12.060 -0.0509  0.8503 -1.2239
 2231UDC     C224532   3.143   6.513  12.118 -0.8418  0.1636  0.6183
 2231UDC     C324533   3.205   6.638  12.176  0.4351 -0.4971 -0.3493
 2231UDC     C424534   3.355   6.614  12.200  0.7013  0.4460 -0.0916
 2231UDC     C524535   3.454   6.738  12.170 -0.1310  0.0159  0.6519
 2231UDC     C624536   3.556   6.721  12.057 -0.2287 -0.0940 -0.5539
 2231UDC     C724537   3.665   6.827  12.040 -0.3905 -1.2234  0.6820
 2231UDC     C824538   3.794   6.810  11.957 -0.1959  0.2348  1.0662
 2231UDC     C924539   3.888   6.931  11.966  0.2204  0.2590  0.3224
 2231UDC    C1024540   4.021   6.921  11.884  0.2356 -0.6406  0.6369
 2231UDC    C1124541   4.082   7.063  11.873  0.2629  0.6141  1.0618
 2232UDC     C124542   4.135   5.864  11.097  0.1209 -0.7823 -0.3315
 2232UDC     C224543   4.085   5.964  11.213 -0.7862 -0.5384 -0.0271
 2232UDC     C324544   4.173   6.085  11.257 -0.3585 -0.6545 -0.0402
 2232UDC     C424545   4.159   6.133  11.404  0.1177  0.2958 -0.0080
 2232UDC     C524546   4.246   6.260  11.429  0.7579 -0.4979  0.2940
 2232UDC     C624547   4.390   6.214  11.413  0.7972  0.1820 -0.4081
 2232UDC     C724548   4.482   6.326  11.369 -0.1468  1.0143 -0.2605
 2232UDC     C824549   4.629   6.322  11.421  0.0694  0.7894  0.1437
 2232UDC     C924550   4.707   6.197  11.375 -0.0250  0.4407  0.4833
 2232UDC    C1024551   4.839   6.168  11.455 -1.1992  0.2731  1.1094
 2232UDC    C1124552   4.915   6.300  11.434  0.1739 -0.6842  1.1377
 2233UDC     C124553   6.105   5.182   0.307  0.3221 -0.1246 -0.2066
 2233UDC     C224554   6.194   5.236   0.415  0.8061  0.1116  0.3377
 2233UDC     C324555   6.305   5.324   0.375 -0.3497  0.5172 -0.1551
 2233UDC     C424556   6.394   5.368   0.489  1.2943  0.3500  0.0593
 2233UDC     C524557   6.451   5.239   0.553 -1.0205  0.7338  0.0803
 2233UDC     C624558   6.570   5.277   0.650  0.5878  0.3104 -0.1298
 2233UDC     C724559   6.588   5.188   0.774  0.7120 -1.0394 -0.2863
 2233UDC     C824560   6.489   5.221   0.888  0.2634 -0.1970 -0.5325
 2233UDC     C924561   6.552   5.305   1.003  0.6993 -0.5906  0.8218
 2233UDC    C1024562   6.454   5.372   1.088  0.9992  0.0522  0.0957
 2233UDC    C1124563   6.316   5.347   1.040 -0.4326  0.6738  1.0948
 2234UDC     C124564   6.262  10.909  19.703  0.8338  0.2146  0.6189
 2234UDC     C224565   6.334  11.038  19.663 -0.7270 -1.8561 -0.1474
 2234UDC     C324566   6.251  11.146  19.578  0.1685  0.5720 -0.3693
 2234UDC     C424567   6.330  11.265  19.520 -1.3844 -0.2800  0.2501
 2234UDC     C524568   6.250  11.378  19.460  0.2122  0.5539  0.0418
 2234UDC     C624569   6.161  11.344  19.338 -0.0104  0.7182  0.4964
 2234UDC     C724570   6.012  11.303  19.361  0.8904  0.5186  0.0784
 2234UDC     C824571   5.904  11.402  19.412  0.2463 -0.1651 -1.0767
 2234UDC     C924572   5.769  11.362  19.349  0.0051 -0.2418  0.3283
 2234UDC    C1024573   5.746  11.455  19.223 -0.0703  0.2097 -0.5752
 2234UDC    C1124574   5.812  11.416  19.087  0.5717  0.7269  0.4143
 2235UDC     C124575   8.871  15.316   9.900  0.5835 -0.5589 -0.4771
 2235UDC     C224576   8.751  15.253   9.966 -0.7057 -0.2612  0.8160
 2235UDC     C324577   8.809  15.128  10.028 -0.0060 -0.6493 -1.1991
 2235UDC     C424578   8.903  15.160  10.147 -0.2056  0.1935 -0.0740
 2235UDC     C524579   8.958  15.050  10.230 -0.2274 -0.4238  0.5770
 2235UDC     C624580   9.097  15.090  10.283  1.7040 -0.4976  0.5294
 2235UDC     C724581   9.179  14.978  10.351  0.6443 -0.0739 -0.3349
 2235UDC     C824582   9.261  14.890  10.253  0.4102  0.2912 -0.1235
 2235UDC     C924583   9.354  14.979  10.164  0.9079 -0.3530 -0.8154
 2235UDC    C1024584   9.369  14.917  10.026 -0.3936  0.0972  0.3508
 2235UDC    C1124585   9.368  15.034   9.919 -0.3586  0.9097 -0.2422
 2236UDC     C124586  19.716   8.400  18.819 -0.0768 -0.1476  1.0015
 2236UDC     C224587  19.592   8.362  18.901  0.7988  0.6589 -0.9142
 2236UDC     C324588  19.472   8.457  18.892 -0.6359 -0.1084  0.5619
 2236UDC     C424589  19.523   8.594  18.908  0.3683 -0.9868  0.5474
 2236UDC     C524590  19.516   8.651  19.051 -0.7253 -0.3520 -0.5170
 2236UDC     C624591  19.555   8.802  19.052  0.6891 -0.4094  0.7786
 2236UDC     C724592  19.553   8.903  19.173  0.1614 -0.4367 -0.9738
 2236UDC     C824593  19.576   9.052  19.133  0.7806 -0.5116 -0.7750
 2236UDC     C924594  19.561   9.139  19.264  0.9061  0.7778  0.5454
 2236UDC    C1024595  19.581   9.286  19.258  0.2953  0.4733  0.8969
 2236UDC    C1124596  19.578   9.349  19.398  1.0902  0.5166 -0.2377
 2237UDC     C124597   0.124   7.331   7.294 -0.1804 -0.4701 -0.0405
 2237UDC     C224598   0.096   7.353   7.444  0.8475  0.2408 -0.1152
 2237UDC     C324599  -0.045   7.311   7.481  0.5855 -1.0944  0.3526
 2237UDC     C424600  -0.075   7.175   7.425 -0.0334  1.1830  0.1807
 2237UDC     C524601  -0.007   7.062   7.496 -0.6567 -0.3502  0.5630
 2237UDC     C624602  -0.044   6.929   7.432 -0.9809  0.4576  0.3698
 2237UDC     C724603   0.029   6.893   7.306 -0.4438  0.6958  0.7374
 2237UDC     C824604  -0.031   6.780   7.227 -0.5611 -0.4846  1.6009
 2237UDC     C924605   0.054   6.695   7.130 -0.4805 -0.0185 -0.1412
 2237UDC    C1024606   0.127   6.783   7.022 -0.2461 -0.8918  0.3987
 2237UDC    C1124607   0.017   6.795   6.913  0.0440 -0.3470  0.8114
 2238UDC     C124608   9.250  18.711   3.046 -0.8730 -0.4532 -0.1051
 2238UDC     C224609   9.346  18.699   2.931 -0.0706 -0.1703 -0.4325
 2238UDC     C324610   9.295  18.628   2.806  0.0516 -0.0641  0.1439
 2238UDC     C424611   9.407  18.566   2.716 -0.0846 -0.3078  0.1638
 2238UDC     C524612   9.334  18.510   2.595 -1.1127 -0.2205 -0.5845
 2238UDC     C624613   9.437  18.429   2.512 -0.3239 -0.1535 -1.0365
 2238UDC     C724614   9.362  18.353   2.414 -1.1092 -0.3428  0.0137
 2238UDC     C824615   9.210  18.365   2.398 -0.2464 -0.2410  0.0163
 2238UDC     C924616   9.174  18.298   2.264  0.3232  0.1469 -0.0535
 2238UDC    C1024617   9.038  18.350   2.208 -0.1034  0.0353  0.1713
 2238UDC    C1124618   9.033  18.326   2.066 -0.4822 -0.8709 -0.6791
 2239UDC     C124619  12.761   0.730  18.337 -0.0991 -0.3105  0.5120
 2239UDC     C224620  12.614   0.779  18.355 -0.0620 -0.0043  0.1011
 2239UDC     C324621  12.593   0.915  18.415  0.7764 -0.1269 -0.0720
 2239UDC     C424622  12.586   1.023  18.306  0.7327  0.2530  0.1204
 2239UDC     C524623  12.450   1.020  18.224  0.0029  0.7459 -1.6271
 2239UDC     C624624  12.452   1.153  18.145  0.7455  0.3174 -0.1716
 2239UDC     C724625  12.425   1.279  18.226  0.0958 -0.1754 -0.3072
 2239UDC     C824626  12.449   1.404  18.144 -0.0956  0.3707 -0.0084
 2239UDC     C924627  12.527   1.519  18.214 -0.1170 -0.1279  0.2567
 2239UDC    C1024628  12.530   1.657  18.143 -1.1751  0.9323 -0.7553
 2239UDC    C1124629  12.400   1.737  18.175  0.3322 -1.0623  0.3344
 2240UDC     C124630  13.692   2.819  19.685  0.2621  0.8015  0.4932
 2240UDC     C224631  13.711   2.690  19.767 -0.1222  1.0845 -0.4242
 2240UDC     C324632  13.690   2.690  19.921  1.4136 -0.5613 -0.9621
 2240UDC     C424633  13.697   2.837  19.971 -0.9981 -0.1629  1.2426
 2240UDC     C524634  13.635   2.870  20.113 -0.4139 -0.4724  0.6880
 2240UDC     C624635  13.599   3.019  20.121 -0.7938 -0.0064  0.6335
 2240UDC     C724636  13.456   3.028  20.083  0.0810  0.0785 -0.5162
 2240UDC     C824637  13.380   3.146  20.143  1.5205  0.2631 -1.0357
 2240UDC     C924638  13.293   3.107  20.275 -1.0826 -0.8774 -0.0822
 2240UDC    C1024639  13.231   3.217  20.360 -0.5195  0.7322 -1.4152
 2240UDC    C1124640  13.231   3.169  20.505 -0.7885 -0.0304  0.1609
 2241UDC     C124641  16.147   7.644   0.309 -0.1865 -0.6987  0.5377
 2241UDC     C224642  16.289   7.701   0.298  0.1416 -0.2098  0.8039
 2241UDC     C324643  16.379   7.595   0.222 -0.0490 -0.5134  0.0929
 2241UDC     C424644  16.521   7.622   0.165 -1.0951  0.3560  0.6370
 2241UDC     C524645  16.530   7.540   0.037 -0.2816 -0.3564 -0.2128
 2241UDC     C624646  16.397   7.491  -0.020  0.4093 -1.3148  0.6342
 2241UDC     C724647  16.386   7.345  -0.071  0.0367  0.4134 -0.1006
 2241UDC     C824648  16.438   7.244   0.029  0.1576 -1.2525  0.1646
 2241UDC     C924649  16.313   7.191   0.107 -0.6081 -1.1189  1.5722
 2241UDC    C1024650  16.366   7.122   0.235  1.2236  0.5954 -0.4704
 2241UDC    C1124651  16.380   7.208   0.361 -0.2264  0.3303 -0.1704
 2242UDC     C124652   3.943  17.897  12.684  0.0109  0.3300  0.5119
 2242UDC     C224653   4.080  17.968  12.690  1.4929  0.2312 -0.7701
 2242UDC     C324654   4.052  18.088  12.781 -0.1497  0.0929 -0.6223
 2242UDC     C424655   4.189  18.132  12.815 -0.2708 -0.3050  0.1278
 2242UDC     C524656   4.197  18.251  12.910  0.5087 -0.0664 -0.3884
 2242UDC     C624657   4.115  18.211  13.044 -0.6447 -0.0121 -0.5587
 2242UDC     C724658   4.132  18.317  13.159  0.0567  0.0764 -0.3468
 2242UDC     C824659   4.064  18.299  13.301 -0.4539 -0.6217  0.2083
 2242UDC     C924660   4.078  18.426  13.395  0.3172  0.1307  0.5360
 2242UDC    C1024661   4.009  18.426  13.526 -0.3568  0.2199 -0.3345
 2242UDC    C1124662   4.060  18.312  13.619 -0.6041 -0.0174 -0.4459
 2243UDC     C124663   3.922   2.202  13.049  0.0527 -0.1410  0.1810
 2243UDC     C224664   3.957   2.070  12.962 -0.1052 -0.7092 -0.2514
 2243UDC     C324665   3.983   2.115  12.812 -0.0107  0.5198  0.2975
 2243UDC     C424666   3.911   2.016  12.727 -0.0252  0.1936  1.2757
 2243UDC     C524667   3.979   1.997  12.588  0.4216  0.3406  0.4462
 2243UDC     C624668   3.890   1.906  12.498 -1.2765  0.0351 -0.4254
 2243UDC     C724669   3.772   1.998  12.453  1.0077  0.9232  0.3062
 2243UDC     C824670   3.642   1.923  12.427  0.5493  0.1444  1.0842
 2243UDC     C924671   3.543   2.025  12.377 -0.2143 -0.2850 -0.6483
 2243UDC    C1024672   3.399   1.971  12.359 -0.8283 -0.9407 -0.3948
 2243UDC    C1124673   3.359   1.824  12.401 -0.0219  0.1034 -0.2247
 2244UDC     C124674   3.089  12.235  12.255 -0.0790  0.5077 -0.1071
 2244UDC     C224675   3.162  12.113  12.302 -0.9479 -1.0318 -0.6545
 2244UDC     C324676   3.144  11.983  12.225  0.7241  0.3322 -0.2732
 2244UDC     C424677   3.143  12.013  12.076 -0.9070 -0.2253  0.8080
 2244UDC     C524678   3.054  11.916  11.995 -0.4064 -0.2275 -0.9308
 2244UDC     C624679   3.036  11.927  11.844  0.6980 -0.4190  0.1187
 2244UDC     C724680   2.959  11.802  11.792 -0.0652  0.2492  0.5049
 2244UDC     C824681   2.811  11.823  11.797  0.8869  0.3959 -1.5378
 2244UDC     C924682   2.752  11.821  11.656 -0.3718  0.2130 -0.4449
 2244UDC    C1024683   2.858  11.749  11.564  0.9194 -0.3459  0.6596
 2244UDC    C1124684   2.844  11.761  11.412  1.3377  0.5169 -0.5799
 2245UDC     C124685   8.057  13.294  10.460  0.0483  0.0183 -0.9007
 2245UDC     C224686   7.916  13.302  10.525  0.0282 -0.0584  0.3560
 2245UDC     C324687   7.809  13.349  10.423  0.4049 -0.5342 -0.0307
 2245UDC     C424688   7.694  13.430  10.480 -0.5288  0.3809 -0.2995
 2245UDC     C524689   7.584  13.500  10.397 -0.0130 -0.4427 -0.2608
 2245UDC     C624690   7.453  13.531  10.473 -0.1394 -0.2508  0.0029
 2245UDC     C724691   7.370  13.636  10.397 -0.4912 -1.1618  0.1343
 2245UDC     C824692   7.373  13.789  10.427 -0.8947  0.3423 -0.5776
 2245UDC     C924693   7.260  13.855  10.350  0.5768  0.8812 -0.7556
 2245UDC    C1024694   7.292  14.003  10.312 -0.3944 -0.7313 -0.0898
 2245UDC    C1124695   7.193  14.051  10.210  0.5422  0.4316  0.9975
 2246UDC     C124696   9.242  10.439  12.873  0.5993  0.0237  0.1739
 2246UDC     C224697   9.383  10.385  12.837  0.7201  0.5899  0.7156
 2246UDC     C324698   9.458  10.305  12.945  0.3120 -0.0417  0.1334
 2246UDC     C424699   9.606  10.270  12.912  0.2665  0.4444 -0.4864
 2246UDC     C524700   9.687  10.250  13.043 -0.0930  0.1624  0.5183
 2246UDC     C624701   9.821  10.172  13.038 -1.1913  1.1868  1.0814
 2246UDC     C724702   9.932  10.222  12.939  1.4321 -0.1597 -1.0065
 2246UDC     C824703   9.948  10.376  12.956 -0.4984 -0.0678  0.1007
 2246UDC     C924704   9.995  10.428  13.095 -0.5868 -0.2326 -0.9299
 2246UDC    C1024705  10.134  10.388  13.134 -0.8302 -0.5861 -0.5277
 2246UDC    C1124706  10.190  10.387  13.277 -0.2435 -0.1194 -0.7171
 2247UDC     C124707  16.895   1.995   4.338 -1.1343 -0.9372  0.6697
 2247UDC     C224708  16.757   1.959   4.372  0.2690 -0.1632 -0.1813
 2247UDC     C324709  16.670   1.894   4.271 -0.2132 -0.0490  1.0272
 2247UDC     C424710  16.700   1.750   4.264 -0.0738 -0.9275 -0.9408
 2247UDC     C524711  16.663   1.690   4.130 -0.3461  0.5788 -0.6118
 2247UDC     C624712  16.721   1.786   4.024 -1.4764 -0.2198  0.3611
 2247UDC     C724713  16.683   1.755   3.876  1.0086 -0.4640  0.4077
 2247UDC     C824714  16.673   1.615   3.816 -0.7578  0.2889 -0.2261
 2247UDC     C924715  16.805   1.534   3.795 -0.3694  0.3515  0.2305
 2247UDC    C1024716  16.785   1.424   3.685  0.4742  0.4169 -0.7455
 2247UDC    C1124717  16.630   1.393   3.677 -0.1717 -0.3244  0.7733
 2248UDC     C124718   9.303   3.875  19.013 -1.1895  0.2885  0.0711
 2248UDC     C224719   9.336   4.014  18.942 -0.4123  1.3695  0.5004
 2248UDC     C324720   9.474   4.024  18.880  1.0168 -0.0334 -0.0048
 2248UDC     C424721   9.492   4.141  18.788 -0.0559 -0.1351  0.5003
 2248UDC     C524722   9.431   4.276  18.840 -0.0562 -1.0999  0.3390
 2248UDC     C624723   9.430   4.397  18.737  0.6199  0.0386  0.3398
 2248UDC     C724724   9.324   4.364  18.630  0.5407  0.1963  0.4744
 2248UDC     C824725   9.241   4.492  18.605 -0.0250  0.0819 -0.0978
 2248UDC     C924726   9.154   4.523  18.729  0.2951  0.5176 -0.5247
 2248UDC    C1024727   9.013   4.460  18.711  1.0264  0.3155  0.4446
 2248UDC    C1124728   8.913   4.469  18.834 -0.4347  0.0850  0.8883
 2249UDC     C124729   4.063   1.132   7.944 -0.1516 -0.4450  0.3544
 2249UDC     C224730   4.100   1.198   8.078 -0.3687 -0.6456 -0.6883
 2249UDC     C324731   4.229   1.283   8.074  0.3962  0.0207  0.0929
 2249UDC     C424732   4.245   1.379   8.191  0.0475  0.3237  0.9083
 2249UDC     C524733   4.137   1.471   8.265 -0.3348  0.1290  0.0649
 2249UDC     C624734   4.027   1.390   8.331 -0.0912  0.0299 -0.0634
 2249UDC     C724735   3.931   1.501   8.372  0.3509 -0.1033  0.0847
 2249UDC     C824736   3.784   1.460   8.408  0.8503 -0.0330  0.2131
 2249UDC     C924737   3.691   1.582   8.413 -0.3406  0.7704 -0.4699
 2249UDC    C1024738   3.545   1.564   8.465  0.2467  1.7845  0.4367
 2249UDC    C1124739   3.445   1.495   8.370  0.0144  0.4751  0.1547
 2250UDC     C124740   3.339  11.356  16.288  0.0965  0.1918  0.3860
 2250UDC     C224741   3.286  11.488  16.349 -0.0055  1.1108  0.7707
 2250UDC     C324742   3.265  11.491  16.502  0.9837  0.3295  0.1079
 2250UDC     C424743   3.239  11.623  16.578 -0.6264  0.7608 -0.7443
 2250UDC     C524744   3.178  11.605  16.719 -0.0509 -2.0482 -0.7642
 2250UDC     C624745   3.252  11.496  16.803 -0.1435 -1.1192  0.3874
 2250UDC     C724746   3.203  11.423  16.926 -0.2771  0.1551 -0.6950
 2250UDC     C824747   3.274  11.285  16.928 -0.1517 -0.1727  0.3446
 2250UDC     C924748   3.407  11.282  16.857 -0.2259 -0.6831 -0.2849
 2250UDC    C1024749   3.512  11.370  16.931  0.2830 -0.0376 -0.5849
 2250UDC    C1124750   3.580  11.294  17.043  0.2374  0.2825  0.0943
 2251UDC     C124751   1.174  14.544   5.191 -1.1334 -0.0903  0.0330
 2251UDC     C224752   1.058  14.547   5.096 -0.0501 -0.2784  0.2031
 2251UDC     C324753   0.974  14.674   5.128  0.5019  0.0704  0.0880
 2251UDC     C424754   0.828  14.636   5.090 -0.0122 -1.1216  1.2791
 2251UDC     C524755   0.718  14.740   5.119 -0.4303 -0.4213  0.8905
 2251UDC     C624756   0.596  14.696   5.036  0.1590 -0.2580  0.2210
 2251UDC     C724757   0.485  14.799   5.073  0.1609 -0.4959 -0.4210
 2251UDC     C824758   0.353  14.802   4.980 -0.9213  1.1649  0.9696
 2251UDC     C924759   0.245  14.911   5.021  0.8069  0.6966 -0.1320
 2251UDC    C1024760   0.191  14.910   5.163 -0.5397  0.8449 -0.2946
 2251UDC    C1124761   0.115  15.031   5.207  1.1024 -0.0179  0.4308
 2252UDC     C124762  14.515   4.721   2.244 -0.7931 -0.9477 -0.5659
 2252UDC     C224763  14.661   4.771   2.207 -0.3427  0.1882  1.1696
 2252UDC     C324764  14.768   4.667   2.195 -0.1636 -0.1392  1.2612
 2252UDC     C424765  14.901   4.709   2.261  0.7755  0.9802  0.8400
 2252UDC     C524766  15.020   4.618   2.238 -0.5492 -0.4003  0.8557
 2252UDC     C624767  15.151   4.667   2.292 -0.0705 -0.2475 -0.6267
 2252UDC     C724768  15.249   4.550   2.299  0.5255 -0.5540 -0.3492
 2252UDC     C824769  15.334   4.553   2.427 -0.4249 -0.0396 -0.7783
 2252UDC     C924770  15.438   4.434   2.424  0.5880 -0.3433  0.5256
 2252UDC    C1024771  15.552   4.468   2.517 -0.6361  0.3932 -0.3186
 2252UDC    C1124772  15.510   4.468   2.663 -0.4059  0.5284  0.8398
 2253UDC     C124773   3.498   7.564  12.789 -0.5296  0.3984 -0.2930
 2253UDC     C224774   3.462   7.642  12.653  0.3153  0.4078 -0.7714
 2253UDC     C324775   3.548   7.773  12.628  0.8713 -0.4034  0.3191
 2253UDC     C424776   3.515   7.848  12.499  0.8386 -0.1357  0.3184
 2253UDC     C524777   3.533   8.003  12.516  0.2487  0.0232 -0.7878
 2253UDC     C624778   3.511   8.060  12.654 -0.7847  0.0492 -0.2924
 2253UDC     C724779   3.485   8.211  12.672  0.4370  0.3682 -0.6864
 2253UDC     C824780   3.418   8.260  12.798 -0.6500  0.3053  0.0268
 2253UDC     C924781   3.442   8.412  12.831 -0.2879  0.0539  0.0997
 2253UDC    C1024782   3.365   8.497  12.731 -0.7271  0.2250  0.3368
 2253UDC    C1124783   3.418   8.642  12.730 -1.0852 -0.7110  1.0102
 2254UDC     C124784   9.136  12.885  13.005 -0.0532  0.3255  0.6931
 2254UDC     C224785   9.183  12.883  12.861 -0.1386  0.2487  0.6993
 2254UDC     C324786   9.314  12.811  12.837 -0.7238 -1.3122 -0.4023
 2254UDC     C424787   9.346  12.762  12.691 -0.2005  0.4524 -0.9293
 2254UDC     C524788   9.242  12.677  12.614  0.3215  0.2154  0.6462
 2254UDC     C624789   9.210  12.525  12.651 -0.7764  0.1257 -0.3215
 2254UDC     C724790   9.129  12.441  12.552  0.2850 -0.5738  0.3982
 2254UDC     C824791   8.991  12.423  12.595  1.0432  0.5871  0.0926
 2254UDC     C924792   8.896  12.334  12.512  0.1062  1.1884 -0.0197
 2254UDC    C1024793   8.766  12.288  12.589  0.3962  0.7763  0.3610
 2254UDC    C1124794   8.676  12.415  12.616 -0.0957  1.1612  0.2903
 2255UDC     C124795  14.514  15.376   6.896 -0.0698  0.2329 -0.2903
 2255UDC     C224796  14.490  15.451   6.765  0.4600 -0.8834  0.7942
 2255UDC     C324797  14.344  15.480   6.734  0.0291 -0.5847  0.7003
 2255UDC     C424798  14.293  15.339   6.726  0.3070  0.7406  0.6650
 2255UDC     C524799  14.135  15.321   6.704  0.6124 -0.5013  0.3871
 2255UDC     C624800  14.056  15.422   6.788  0.6460  0.5752  0.3451
 2255UDC     C724801  13.909  15.380   6.803 -0.0899 -0.3115 -0.3850
 2255UDC     C824802  13.846  15.354   6.668  0.4409 -1.0804  0.2917
 2255UDC     C924803  13.698  15.294   6.650 -0.0873  0.2872 -0.0050
 2255UDC    C1024804  13.643  15.281   6.503 -0.2093  1.2199 -0.7171
 2255UDC    C1124805  13.591  15.412   6.449 -0.2648  0.4550  0.1709
 2256UDC     C124806   1.105  13.007  18.760  0.7436 -0.6770  0.2270
 2256UDC     C224807   1.072  12.919  18.643  0.6958  0.2531  0.0844
 2256UDC     C324808   1.196  12.884  18.566 -0.2102 -0.9235 -0.3116
 2256UDC     C424809   1.312  12.843  18.670 -0.1979  0.2772  0.1493
 2256UDC     C524810   1.423  12.789  18.582 -0.5106 -0.0923 -0.1386
 2256UDC     C624811   1.395  12.646  18.538  0.2808 -0.2431  1.4912
 2256UDC     C724812   1.525  12.582  18.478  0.2368 -1.1509  0.5798
 2256UDC     C824813   1.473  12.494  18.355 -0.2076  0.0498 -0.1402
 2256UDC     C924814   1.570  12.418  18.260 -1.6399  0.4386  0.2036
 2256UDC    C1024815   1.612  12.275  18.314 -0.2558  0.8171  0.5752
 2256UDC    C1124816   1.713  12.194  18.223 -0.4812  0.1583 -0.0981
 2257UDC     C124817   8.369   4.168   8.046 -0.1330 -0.0343 -0.5349
 2257UDC     C224818   8.461   4.276   7.989  0.1590  0.5782  0.3473
 2257UDC     C324819   8.482   4.415   8.037  0.5916 -0.4176 -0.5027
 2257UDC     C424820   8.610   4.500   8.033 -0.6042 -0.0189  0.8749
 2257UDC     C524821   8.589   4.636   8.103 -0.3907  1.3019  0.7123
 2257UDC     C624822   8.711   4.719   8.143 -0.8609 -0.8490  0.0194
 2257UDC     C724823   8.674   4.858   8.208 -0.4196 -0.5366 -0.2190
 2257UDC     C824824   8.696   4.986   8.136 -0.9574  0.9687 -0.5888
 2257UDC     C924825   8.707   5.102   8.233  0.5709 -1.4567 -0.0320
 2257UDC    C1024826   8.736   5.245   8.177 -1.0684 -0.1095  0.0880
 2257UDC    C1124827   8.617   5.309   8.104 -0.2499 -0.4336 -0.5376
 2258UDC     C124828  15.757   3.567   3.667 -0.6042  0.2973  0.0768
 2258UDC     C224829  15.790   3.413   3.647 -0.2800  0.4555 -0.2396
 2258UDC     C324830  15.850   3.350   3.772 -1.2523  0.2722  0.6809
 2258UDC     C424831  16.001   3.374   3.806  1.1117 -0.4698  0.5340
 2258UDC     C524832  16.049   3.335   3.943 -0.9265 -0.1099  0.2184
 2258UDC     C624833  16.201   3.354   3.978 -0.0089 -0.1315  1.3013
 2258UDC     C724834  16.247   3.296   4.105  0.5886  0.7709 -0.0493
 2258UDC     C824835  16.259   3.146   4.121 -0.6170  0.3955 -0.5109
 2258UDC     C924836  16.320   3.109   4.258  0.2887  0.4096  0.6078
 2258UDC    C1024837  16.346   2.957   4.267  0.7943  0.0821  0.7579
 2258UDC    C1124838  16.408   2.916   4.394 -0.0015  0.6242 -0.8148
 2259UDC     C124839   6.957  17.331  14.304  0.4342 -0.5817  0.0107
 2259UDC     C224840   6.812  17.377  14.317 -0.4301  0.6364  0.4147
 2259UDC     C324841   6.726  17.326  14.198 -0.5550  0.0583 -0.0001
 2259UDC     C424842   6.590  17.374  14.173 -0.3600 -0.9606 -0.3070
 2259UDC     C524843   6.590  17.510  14.102  0.5110 -0.4544 -0.1357
 2259UDC     C624844   6.633  17.488  13.958  0.1618  0.3624  0.5442
 2259UDC     C724845   6.782  17.519  13.923 -0.0785  0.1994 -1.4962
 2259UDC     C824846   6.826  17.488  13.781 -0.2825  0.0414 -1.2286
 2259UDC     C924847   6.978  17.520  13.782  0.0762 -0.6481  0.4707
 2259UDC    C1024848   7.066  17.471  13.663 -0.8790 -1.4050  0.2480
 2259UDC    C1124849   7.218  17.492  13.671 -1.4519 -0.0182  1.0211
 2260UDC     C124850   4.043   5.677  14.530  1.1274 -0.0548 -0.8129
 2260UDC     C224851   3.963   5.568  14.467  0.0622  0.2597  0.0843
 2260UDC     C324852   3.873   5.610  14.352 -0.2857 -0.5811  0.6805
 2260UDC     C424853   3.945   5.653  14.217 -0.0406 -0.3751 -0.2042
 2260UDC     C524854   3.892   5.591  14.084 -0.4986  0.2181  0.3221
 2260UDC     C624855   3.766   5.659  14.031 -0.4653 -0.7922  1.3869
 2260UDC     C724856   3.770   5.664  13.874  1.5281 -0.0729  0.7802
 2260UDC     C824857   3.764   5.523  13.813  0.0160  1.2415 -0.0841
 2260UDC     C924858   3.623   5.463  13.821  0.2925  0.3784  0.5569
 2260UDC    C1024859   3.625   5.313  13.774 -0.7279  0.0624 -0.2322
 2260UDC    C1124860   3.488   5.258  13.813 -0.5639 -1.5409  0.3842
 2261UDC     C124861   0.434  16.890   5.334  0.2967  0.8063  0.8311
 2261UDC     C224862   0.576  16.860   5.384 -0.4946  0.8773  1.0594
 2261UDC     C324863   0.656  16.784   5.284 -0.1342 -0.0571 -0.0062
 2261UDC     C424864   0.590  16.648   5.275  1.1007 -0.4115  1.2768
 2261UDC     C524865   0.607  16.565   5.146  1.1269  0.0760 -0.0294
 2261UDC     C624866   0.590  16.416   5.171  0.0541  1.9445 -0.5517
 2261UDC     C724867   0.715  16.353   5.225 -0.4417 -0.5853 -0.1220
 2261UDC     C824868   0.842  16.391   5.163 -0.5204 -1.2049  0.4821
 2261UDC     C924869   0.903  16.308   5.060 -1.0389  0.3152  0.3733
 2261UDC    C1024870   0.975  16.183   5.091  0.6191  1.3847  1.0638
 2261UDC    C1124871   1.104  16.176   5.162 -1.1862 -0.2982 -0.6343
 2262UDC     C124872   8.838  13.930  17.199 -0.7149 -0.6342  0.8068
 2262UDC     C224873   8.910  14.063  17.153  1.1252  0.9008  0.3650
 2262UDC     C324874   8.829  14.194  17.131 -0.1743  0.9680  0.3648
 2262UDC     C424875   8.936  14.295  17.082 -0.2034 -0.1980  0.5850
 2262UDC     C524876   8.895  14.438  17.127 -0.8009  0.4515  0.2751
 2262UDC     C624877   9.004  14.500  17.225 -0.0393  0.1530 -1.9009
 2262UDC     C724878   9.027  14.444  17.374  0.4515  0.4262  0.5524
 2262UDC     C824879   9.129  14.508  17.472 -1.1947 -0.4997  0.3671
 2262UDC     C924880   9.108  14.655  17.505  1.2661 -0.7541  0.2567
 2262UDC    C1024881   9.224  14.708  17.572 -0.1545 -0.4167 -0.7773
 2262UDC    C1124882   9.161  14.833  17.651 -0.5300 -0.0219 -0.6051
 2263UDC     C124883  10.965   9.203  19.967  0.6350  0.5242 -0.2332
 2263UDC     C224884  10.923   9.212  19.824  0.0346 -0.0585  0.5769
 2263UDC     C324885  11.027   9.178  19.713 -0.9512  0.0365  0.2100
 2263UDC     C424886  11.087   9.033  19.746  0.3536 -0.0714 -0.0903
 2263UDC     C524887  11.016   8.920  19.683  1.0310  0.2654 -1.2024
 2263UDC     C624888  11.109   8.796  19.665  0.6678 -0.0420 -0.1491
 2263UDC     C724889  11.053   8.648  19.674 -0.5140  0.6955  0.5533
 2263UDC     C824890  11.135   8.544  19.604 -0.5690  0.6017  0.3830
 2263UDC     C924891  11.149   8.583  19.457  0.4300  0.5144  0.1788
 2263UDC    C1024892  11.254   8.507  19.375 -0.3002  0.3652 -0.2140
 2263UDC    C1124893  11.291   8.552  19.234 -0.2735  0.7809  0.5932
 2264UDC     C124894  16.832   2.962   2.345 -1.4149 -0.3486  0.0229
 2264UDC     C224895  16.740   3.077   2.375  0.4520  0.0714 -0.1059
 2264UDC     C324896  16.600   3.096   2.306 -1.2099 -0.0710  0.3610
 2264UDC     C424897  16.539   3.217   2.374  0.1582  0.9157 -0.4239
 2264UDC     C524898  16.481   3.325   2.281 -0.0011  1.2333 -0.6302
 2264UDC     C624899  16.379   3.408   2.339  0.6824  0.5528  0.0065
 2264UDC     C724900  16.240   3.358   2.306  0.5445  0.2698  0.7959
 2264UDC     C824901  16.128   3.462   2.339 -0.4803  0.7329 -1.5800
 2264UDC     C924902  15.985   3.416   2.306 -0.5764  0.7965  0.8126
 2264UDC    C1024903  15.964   3.368   2.160 -0.0694 -0.6535  1.3847
 2264UDC    C1124904  16.002   3.485   2.064  0.1405  0.0529 -0.0410
 2265UDC     C124905   3.695  10.355  11.882 -0.2368 -0.4151  0.2260
 2265UDC     C224906   3.809  10.447  11.935 -1.0287  0.7368  0.2778
 2265UDC     C324907   3.822  10.564  11.836 -0.5231 -0.9459 -0.0769
 2265UDC     C424908   3.948  10.656  11.840 -0.4501  0.2082  1.1241
 2265UDC     C524909   4.101  10.611  11.828 -0.1065  0.6771 -0.6027
 2265UDC     C624910   4.197  10.727  11.830 -0.0314  0.6450  0.1793
 2265UDC     C724911   4.308  10.734  11.728 -1.0765 -0.4268 -0.0054
 2265UDC     C824912   4.393  10.605  11.716  0.4386  0.5908  0.5835
 2265UDC     C924913   4.422  10.568  11.573  0.2147 -0.9234  0.8543
 2265UDC    C1024914   4.493  10.663  11.472  0.2326  0.1736  0.0778
 2265UDC    C1124915   4.627  10.630  11.410  0.2842  0.4156  0.0593
 2266UDC     C124916  14.883  11.818   1.582 -0.5514  0.1113  0.6160
 2266UDC     C224917  14.957  11.898   1.689  0.0280 -0.7148 -1.0995
 2266UDC     C324918  15.040  11.810   1.784  1.0123  0.5044  0.4415
 2266UDC     C424919  15.096  11.872   1.910  0.2899 -1.0627 -0.3643
 2266UDC     C524920  14.984  11.898   2.019 -0.3690 -1.4917 -0.3193
 2266UDC     C624921  15.046  11.946   2.154 -0.5636 -1.2270  0.7620
 2266UDC     C724922  15.101  12.087   2.137  1.0509  0.0068  0.8187
 2266UDC     C824923  15.016  12.184   2.062  0.5889  0.8647 -1.0551
 2266UDC     C924924  14.908  12.257   2.145 -0.8083 -0.6873  0.7997
 2266UDC    C1024925  14.821  12.360   2.065  0.0224  0.4250 -1.0377
 2266UDC    C1124926  14.705  12.416   2.147  1.3214  0.6139 -0.9864
 2267UDC     C124927  16.630   0.003  10.404  0.5150 -0.2483  0.4827
 2267UDC     C224928  16.684  -0.001  10.255 -0.1455 -0.6399 -0.9593
 2267UDC     C324929  16.827   0.068  10.236  0.2343 -0.3874 -0.3756
 2267UDC     C424930  16.843   0.207  10.301 -0.1763 -0.1981 -0.8824
 2267UDC     C524931  16.789   0.325  10.220  0.1759  0.0007  0.5036
 2267UDC     C624932  16.854   0.339  10.083  0.8624 -0.5758  0.0572
 2267UDC     C724933  16.976   0.433  10.055  0.6413 -0.6844 -1.1680
 2267UDC     C824934  17.113   0.392  10.113 -0.3616  0.5759 -0.1635
 2267UDC     C924935  17.227   0.498  10.140 -0.1905 -0.7036 -0.5848
 2267UDC    C1024936  17.353   0.434  10.183 -0.9305  0.0300 -0.7605
 2267UDC    C1124937  17.396   0.288  10.136  0.1321  0.0241 -0.3908
 2268UDC     C124938  13.608   8.364  18.266 -0.2216 -1.1034  0.8401
 2268UDC     C224939  13.474   8.333  18.338 -0.2386 -0.8156 -0.1309
 2268UDC     C324940  13.470   8.315  18.497 -0.4276 -0.1594  1.3723
 2268UDC     C424941  13.320   8.338  18.529 -1.1951  0.3611 -0.6566
 2268UDC     C524942  13.303   8.419  18.664  0.2141 -0.3276 -0.4121
 2268UDC     C624943  13.358   8.368  18.801 -0.7013 -0.3081  1.5701
 2268UDC     C724944  13.277   8.397  18.925  0.7236 -0.2537  0.0455
 2268UDC     C824945  13.337   8.360  19.065  0.5404  0.1164 -1.0213
 2268UDC     C924946  13.292   8.439  19.194  0.4081  1.2613 -0.4408
 2268UDC    C1024947  13.365   8.568  19.219 -0.8405  0.3409  0.4519
 2268UDC    C1124948  13.325   8.638  19.347 -0.4672 -0.2509  1.2457
 2269UDC     C124949   5.923  18.051  16.524  0.1534  0.4193 -0.7170
 2269UDC     C224950   5.925  17.936  16.627 -0.2115  0.2117  0.3572
 2269UDC     C324951   6.071  17.893  16.652 -0.4188  0.3738  0.1065
 2269UDC     C424952   6.077  17.772  16.743 -0.8786 -0.8886 -0.0598
 2269UDC     C524953   6.220  17.707  16.742 -0.6458  1.0755 -0.2663
 2269UDC     C624954   6.327  17.804  16.765 -0.1617 -0.9744 -1.4530
 2269UDC     C724955   6.465  17.734  16.767  0.2617 -0.1956  0.1494
 2269UDC     C824956   6.486  17.635  16.882  0.4449  1.5200  0.5459
 2269UDC     C924957   6.624  17.569  16.854  1.1241  0.2028 -0.4006
 2269UDC    C1024958   6.747  17.672  16.860 -0.8812 -0.3273  0.7468
 2269UDC    C1124959   6.886  17.613  16.821 -0.5388 -0.0403 -0.3769
 2270UDC     C124960  15.978   0.712  12.125 -0.4062  0.1252  0.2129
 2270UDC     C224961  15.876   0.699  12.240 -0.6511 -0.6070 -0.4126
 2270UDC     C324962  15.736   0.770  12.209 -0.3317  0.2211  0.9158
 2270UDC     C424963  15.625   0.778  12.318  0.6096  0.1760 -0.1031
 2270UDC     C524964  15.695   0.797  12.456  0.7382 -0.6197 -0.0948
 2270UDC     C624965  15.592   0.802  12.564  0.0552 -1.3098 -0.9098
 2270UDC     C724966  15.633   0.721  12.690  0.6525  0.6487  0.2496
 2270UDC     C824967  15.724   0.798  12.785 -0.9798  1.7325  1.1031
 2270UDC     C924968  15.656   0.910  12.856  0.4266  0.4223 -0.0810
 2270UDC    C1024969  15.757   0.987  12.936 -0.9125 -0.4114  0.8190
 2270UDC    C1124970  15.868   1.039  12.837  0.7715  1.0468 -1.3291
 2271UDC     C124971  17.137   3.478   1.088 -0.3743  0.4225 -0.7588
 2271UDC     C224972  17.121   3.413   1.230 -0.6685  0.3788 -0.5469
 2271UDC     C324973  17.137   3.261   1.225 -0.8485 -0.0392  0.5554
 2271UDC     C424974  17.078   3.191   1.348 -1.0290  0.8079  0.2977
 2271UDC     C524975  17.162   3.204   1.473  0.5458 -0.5861  0.0008
 2271UDC     C624976  17.146   3.092   1.582  0.5953 -0.2339 -0.2339
 2271UDC     C724977  17.237   3.136   1.704 -0.2805 -0.3401 -0.0045
 2271UDC     C824978  17.244   3.281   1.749  1.0106  0.3052 -0.2145
 2271UDC     C924979  17.379   3.301   1.821 -1.2801  0.2044  0.4928
 2271UDC    C1024980  17.380   3.417   1.924  0.0135  0.4028  0.2347
 2271UDC    C1124981  17.518   3.476   1.972  0.1823 -0.2149  0.1654
 2272UDC     C124982   4.809  16.620  17.659 -0.6673 -0.7916  0.4519
 2272UDC     C224983   4.865  16.760  17.640 -0.5456  0.4184 -0.8497
 2272UDC     C324984   5.000  16.751  17.712 -0.8715 -0.1358  1.2346
 2272UDC     C424985   4.979  16.741  17.861  1.1233  0.6616  1.3874
 2272UDC     C524986   4.957  16.870  17.943  0.2323 -1.4094  0.5560
 2272UDC     C624987   4.863  16.845  18.058 -0.2066  0.2035 -0.8546
 2272UDC     C724988   4.720  16.808  18.017 -0.5989 -0.6103  0.2038
 2272UDC     C824989   4.639  16.714  18.110  0.0984 -0.5284 -0.8450
 2272UDC     C924990   4.678  16.746  18.266  0.3502 -0.1606  0.4243
 2272UDC    C1024991   4.589  16.700  18.377 -0.5914 -0.6226 -0.0012
 2272UDC    C1124992   4.643  16.767  18.504 -0.0742  0.0136 -0.1274
 2273UDC     C124993  13.911   4.786  12.581  0.4085 -0.5587  1.2455
 2273UDC     C224994  14.044   4.712  12.555  0.2405  1.0151 -0.0415
 2273UDC     C324995  14.158   4.768  12.650  0.4380  0.7143  1.4545
 2273UDC     C424996  14.181   4.917  12.620 -0.0046  0.5057  1.0534
 2273UDC     C524997  14.282   4.960  12.508  0.6311  0.5268  0.4517
 2273UDC     C624998  14.243   5.086  12.426  0.6374 -0.0578  1.3512
 2273UDC     C724999  14.130   5.075  12.318 -0.9366 -0.4761  0.4998
 2273UDC     C825000  14.067   5.195  12.238 -1.0186 -0.0308 -0.7227
 2273UDC     C925001  14.169   5.249  12.134 -0.2679  0.2318 -0.1756
 2273UDC    C1025002  14.114   5.347  12.019  0.2379 -0.0600  0.0733
 2273UDC    C1125003  14.136   5.326  11.864  0.5023 -0.0367  1.0466
 2274UDC     C125004   8.332  15.251  14.049 -0.5750  0.6461  0.6140
 2274UDC     C225005   8.386  15.395  14.061 -0.6053  1.2872  1.0008
 2274UDC     C325006   8.364  15.481  13.932 -0.1646 -0.0629 -0.3390
 2274UDC     C425007   8.220  15.524  13.948  0.4538  0.2105  0.1933
 2274UDC     C525008   8.147  15.527  13.811 -0.6939 -0.8103  0.0439
 2274UDC     C625009   7.996  15.543  13.798  0.0299 -0.4125 -0.6845
 2274UDC     C725010   7.920  15.432  13.869  0.3219  0.0211 -0.5165
 2274UDC     C825011   7.769  15.449  13.901 -0.1555  0.8859 -0.4955
 2274UDC     C925012   7.684  15.454  13.770  0.0432 -0.2342 -0.3123
 2274UDC    C1025013   7.531  15.425  13.790 -0.3435  0.1578 -0.6810
 2274UDC    C1125014   7.451  15.413  13.652 -0.3654 -1.0420  0.5835
 2275UDC     C125015   7.468  16.890  15.166 -0.1128 -0.8102 -0.4559
 2275UDC     C225016   7.601  16.871  15.240 -0.4307 -0.5677 -0.3217
 2275UDC     C325017   7.602  16.734  15.308 -0.0511  0.7329  0.0030
 2275UDC     C425018   7.655  16.748  15.453  0.1199 -0.5812 -0.7440
 2275UDC     C525019   7.576  16.845  15.553  0.1371  0.0051  0.4607
 2275UDC     C625020   7.575  16.792  15.704 -0.7918  0.2090 -0.0220
 2275UDC     C725021   7.447  16.851  15.773 -0.8424  0.1132 -0.0783
 2275UDC     C825022   7.344  16.834  15.665  0.0946  0.0058 -1.3394
 2275UDC     C925023   7.218  16.888  15.730  0.4068 -0.5823 -1.0692
 2275UDC    C1025024   7.102  16.912  15.626 -0.5682 -0.1223  0.3994
 2275UDC    C1125025   6.961  16.855  15.662 -0.0669 -0.1547 -0.3083
 2276UDC     C125026  15.434  15.862  15.113 -0.0421 -0.9250 -0.1722
 2276UDC     C225027  15.458  16.013  15.122 -1.1544 -0.7578  0.4692
 2276UDC     C325028  15.341  16.105  15.077 -0.4100 -0.6331 -0.3813
 2276UDC     C425029  15.354  16.250  15.136  0.1110 -0.5277  0.6628
 2276UDC     C525030  15.344  16.255  15.289  1.0703  0.0210 -1.1510
 2276UDC     C625031  15.193  16.254  15.326 -0.2669 -0.4133  0.2676
 2276UDC     C725032  15.118  16.383  15.290  0.8859  0.3790 -0.5345
 2276UDC     C825033  14.972  16.378  15.249  0.5543  0.8566  0.1207
 2276UDC     C925034  14.886  16.351  15.370 -0.6084 -0.5879 -0.3040
 2276UDC    C1025035  14.728  16.365  15.356 -0.2232 -0.7963 -0.2738
 2276UDC    C1125036  14.653  16.298  15.468  0.4646  0.5531 -0.3946
 2277UDC     C125037   0.402  17.497  18.328 -1.2544 -0.5057 -0.6868
 2277UDC     C225038   0.306  17.616  18.353  0.3318 -0.5396 -0.3733
 2277UDC     C325039   0.180  17.612  18.265  0.0553 -0.3965 -0.5137
 2277UDC     C425040   0.198  17.624  18.120 -0.1484 -0.8752 -0.0475
 2277UDC     C525041   0.281  17.736  18.057  0.8081  0.3550  0.7136
 2277UDC     C625042   0.241  17.739  17.901 -0.2538  0.0848 -0.8811
 2277UDC     C725043   0.210  17.599  17.851 -0.5976  0.2227 -0.4798
 2277UDC     C825044   0.160  17.589  17.707 -0.5501 -0.0429 -0.3545
 2277UDC     C925045   0.104  17.456  17.648  1.4451 -0.9616 -0.0330
 2277UDC    C1025046  -0.010  17.397  17.729  0.4909 -0.2973  0.0194
 2277UDC    C1125047  -0.048  17.262  17.688 -1.4414  0.3384 -0.2690
 2278UDC     C125048   0.353   9.073  15.526 -0.9310 -0.0370 -0.2733
 2278UDC     C225049   0.388   9.218  15.543  0.3210 -0.2533 -0.6568
 2278UDC     C325050   0.503   9.261  15.457  0.1918 -0.6634  0.2786
 2278UDC     C425051   0.633   9.216  15.509  1.4429  0.3852  0.2566
 2278UDC     C525052   0.744   9.179  15.411 -0.8801 -0.7415 -0.0936
 2278UDC     C625053   0.867   9.086  15.452 -0.1002  0.1861 -0.1168
 2278UDC     C725054   0.951   9.019  15.336 -0.6565  0.5108  0.7643
 2278UDC     C825055   1.064   8.913  15.354  0.8295  0.6066 -0.0461
 2278UDC     C925056   0.992   8.779  15.372 -1.2181  0.8248 -0.5963
 2278UDC    C1025057   1.063   8.656  15.430 -0.0965 -0.2192 -0.2273
 2278UDC    C1125058   0.972   8.545  15.495 -1.0503  0.1548  0.0031
 2279UDC     C125059  10.501  15.021   6.638 -0.8282  1.0032  0.4865
 2279UDC     C225060  10.369  15.089   6.670  1.1221 -0.6739 -0.3913
 2279UDC     C325061  10.320  15.071   6.809 -0.0691  0.9709  0.7729
 2279UDC     C425062  10.330  14.924   6.864 -1.1334 -0.4969 -0.7638
 2279UDC     C525063  10.277  14.904   7.012 -0.2742  0.4162  0.4825
 2279UDC     C625064  10.133  14.946   7.019 -0.4965 -0.5261  0.5704
 2279UDC     C725065  10.075  14.983   7.158  0.4442  1.1330  0.6144
 2279UDC     C825066  10.068  14.870   7.259 -0.3222  0.8251 -0.2126
 2279UDC     C925067   9.922  14.838   7.319 -0.1042 -0.2767  0.5286
 2279UDC    C1025068   9.823  14.795   7.211 -0.4542 -1.1735 -0.0265
 2279UDC    C1125069   9.679  14.785   7.257  1.0890 -0.1296  0.5139
 2280UDC     C125070  13.423   7.861  13.645  0.1127  0.1231 -0.6381
 2280UDC     C225071  13.412   8.005  13.679  0.1159 -0.0907  0.8476
 2280UDC     C325072  13.287   8.051  13.758 -0.8079  0.3975  0.4473
 2280UDC     C425073  13.170   8.090  13.665  0.4038 -1.6071 -0.0086
 2280UDC     C525074  13.036   8.098  13.742 -0.6720 -0.6655  0.6085
 2280UDC     C625075  12.918   8.069  13.646 -0.6911  0.7008  0.8304
 2280UDC     C725076  12.867   7.921  13.638  0.3564 -0.1230 -0.7275
 2280UDC     C825077  12.863   7.843  13.496 -0.4984 -0.4166  0.2532
 2280UDC     C925078  12.766   7.892  13.385  0.1993  0.4161 -0.1803
 2280UDC    C1025079  12.803   7.858  13.244  0.0452 -0.7913  1.2335
 2280UDC    C1125080  12.834   7.710  13.243 -1.0908 -0.7461  0.1483
 2281UDC     C125081  17.298  10.614   0.547  0.4341  0.2899 -0.4945
 2281UDC     C225082  17.302  10.498   0.649  0.1497 -0.1859 -0.6746
 2281UDC     C325083  17.355  10.369   0.591 -0.0177 -0.4697  0.4889
 2281UDC     C425084  17.241  10.289   0.522 -0.1344  0.2264  0.8272
 2281UDC     C525085  17.284  10.144   0.506 -0.1463  0.2248  0.9849
 2281UDC     C625086  17.164  10.049   0.459 -0.5739 -0.1961 -0.3789
 2281UDC     C725087  17.043  10.092   0.366 -0.0422 -0.3407 -1.3604
 2281UDC     C825088  17.021  10.019   0.240  0.6086 -0.5457  1.0209
 2281UDC     C925089  16.888  10.056   0.182 -0.1798 -0.6890  0.6831
 2281UDC    C1025090  16.850   9.986   0.052 -0.6152 -0.2166  1.0889
 2281UDC    C1125091  16.864   9.833   0.059 -0.0771  0.4080 -0.9524
 2282UDC     C125092   5.032  15.407  14.343  0.4513  0.3655  1.1996
 2282UDC     C225093   5.026  15.294  14.449  0.8633  0.1766  0.2527
 2282UDC     C325094   5.072  15.311  14.596 -0.8022 -0.6681  0.6505
 2282UDC     C425095   5.122  15.171  14.637 -0.4103 -0.2462  0.1970
 2282UDC     C525096   5.135  15.141  14.791  0.8349 -0.4397 -0.4506
 2282UDC     C625097   5.227  15.245  14.865  0.1238 -0.4676  0.8326
 2282UDC     C725098   5.275  15.201  15.006  0.3282 -0.9074 -1.1061
 2282UDC     C825099   5.419  15.208  15.051  0.3297  0.1083  0.5351
 2282UDC     C925100   5.471  15.144  15.178 -0.8721  0.5856  0.5246
 2282UDC    C1025101   5.445  15.208  15.314  1.1407  0.3680 -0.9864
 2282UDC    C1125102   5.551  15.144  15.405  0.1067  0.4801  0.7030
 2283UDC     C125103   1.277   6.567   3.771  0.2884  0.4771  0.4146
 2283UDC     C225104   1.403   6.524   3.853 -0.0219 -0.0238 -0.0515
 2283UDC     C325105   1.417   6.372   3.886  0.1142  0.0161 -0.4997
 2283UDC     C425106   1.547   6.357   3.970  0.6727 -0.2702  0.1983
 2283UDC     C525107   1.557   6.222   4.029  0.7703 -0.2111  0.7102
 2283UDC     C625108   1.654   6.132   3.966 -1.1678 -0.9986  0.7491
 2283UDC     C725109   1.656   5.995   4.035 -0.9261 -0.6280 -0.8996
 2283UDC     C825110   1.675   6.004   4.185  0.1922  0.4486  0.2446
 2283UDC     C925111   1.680   5.868   4.258 -0.4554 -0.2630  0.4103
 2283UDC    C1025112   1.734   5.883   4.392 -0.5132  0.8129  0.4019
 2283UDC    C1125113   1.824   5.765   4.424  0.4685  0.7572 -0.0132
 2284UDC     C125114   0.147   8.605   1.812  0.5083  0.0910  0.2129
 2284UDC     C225115   0.272   8.677   1.766  0.1181 -1.7283 -0.9356
 2284UDC     C325116   0.368   8.582   1.693 -0.2031 -0.9726  0.8954
 2284UDC     C425117   0.465   8.518   1.787  0.7733 -0.8228 -0.1629
 2284UDC     C525118   0.583   8.465   1.703 -0.0548 -0.0697  0.1299
 2284UDC     C625119   0.639   8.562   1.600 -0.4220 -0.6591 -0.3729
 2284UDC     C725120   0.770   8.518   1.535 -0.1274 -1.6118 -0.9800
 2284UDC     C825121   0.800   8.586   1.399 -0.1838  0.3735  0.3590
 2284UDC     C925122   0.871   8.515   1.282 -0.7417 -0.1361 -0.5570
 2284UDC    C1025123   0.786   8.416   1.203 -0.5243  0.7848  0.5172
 2284UDC    C1125124   0.864   8.368   1.083  0.1160  0.2058 -0.2561
 2285UDC     C125125  18.298  14.504  10.934 -0.4044 -0.0230  0.1209
 2285UDC     C225126  18.319  14.453  11.080  0.8889 -1.6447 -0.3088
 2285UDC     C325127  18.358  14.565  11.179 -0.3449 -0.2759  0.8038
 2285UDC     C425128  18.353  14.502  11.316 -0.9332  0.6073 -0.0241
 2285UDC     C525129  18.385  14.613  11.417  0.6713  0.0551  0.5747
 2285UDC     C625130  18.375  14.559  11.558 -0.7874  1.3031  1.3284
 2285UDC     C725131  18.520  14.502  11.591  0.7184 -0.7174  0.5590
 2285UDC     C825132  18.517  14.406  11.717  0.6889 -0.7596 -0.4234
 2285UDC     C925133  18.664  14.400  11.775 -0.3770 -0.3198 -0.0899
 2285UDC    C1025134  18.639  14.383  11.928 -0.6525  0.5445 -0.3157
 2285UDC    C1125135  18.775  14.418  11.994  0.2036 -0.8037  0.3535
 2286UDC     C125136  18.246   5.981  19.081 -0.2654  1.0785 -0.7024
 2286UDC     C225137  18.237   5.844  19.137 -0.2680  0.4429 -0.6267
 2286UDC     C325138  18.173   5.841  19.277 -0.1723 -0.1604  0.6570
 2286UDC     C425139  18.050   5.927  19.298  0.0843 -0.3961 -0.2991
 2286UDC     C525140  17.933   5.858  19.233 -0.8131 -0.9424  0.4182
 2286UDC     C625141  17.825   5.966  19.223  0.3465 -0.7171  0.4384
 2286UDC     C725142  17.861   6.095  19.162 -0.3290  0.4329 -1.2688
 2286UDC     C825143  17.755   6.183  19.091 -1.1994 -0.4284  0.5604
 2286UDC     C925144  17.804   6.332  19.094  0.5603  0.2537 -0.0251
 2286UDC    C1025145  17.704   6.441  19.117  0.8673  0.0072  0.3326
 2286UDC    C1125146  17.703   6.539  19.003 -0.0640  0.9451 -0.9321
 2287UDC     C125147   1.883  13.360   0.553 -1.1455  0.0404 -0.9151
 2287UDC     C225148   1.929  13.293   0.426 -0.9790  0.5207  0.4522
 2287UDC     C325149   1.986  13.168   0.483  0.1277  0.9455 -0.1926
 2287UDC     C425150   2.066  13.078   0.390 -0.7494 -0.3388  0.4598
 2287UDC     C525151   1.991  13.010   0.270  0.0498  0.0400 -0.5530
 2287UDC     C625152   1.886  12.911   0.316 -1.0924  1.2122  0.3746
 2287UDC     C725153   1.841  12.806   0.206 -1.2900 -0.3061  0.3346
 2287UDC     C825154   1.736  12.707   0.267  0.0141  0.5551 -0.1902
 2287UDC     C925155   1.768  12.653   0.411  0.3757 -0.9194  0.6452
 2287UDC    C1025156   1.654  12.590   0.489  1.0135  0.0912 -1.1747
 2287UDC    C1125157   1.697  12.457   0.548 -1.0694  0.1125 -0.8632
 2288UDC     C125158  19.212   8.949  10.241 -1.3866  0.5359  0.4065
 2288UDC     C225159  19.155   8.992  10.376  0.2661 -0.7458 -0.2303
 2288UDC     C325160  18.999   9.010  10.402  0.5387  0.2328 -0.6470
 2288UDC     C425161  18.913   8.891  10.372 -0.0295 -0.5306  0.6690
 2288UDC     C525162  18.764   8.881  10.406  0.9708 -0.3837 -0.2876
 2288UDC     C625163  18.702   8.742  10.401  0.7162  0.7546 -0.1841
 2288UDC     C725164  18.558   8.781  10.378 -0.9539  0.3946  0.4621
 2288UDC     C825165  18.477   8.654  10.330 -0.6952 -0.4209  0.2538
 2288UDC     C925166  18.338   8.698  10.304 -1.1809  0.2931  0.0427
 2288UDC    C1025167  18.264   8.605  10.216  1.4973  0.3389  0.6969
 2288UDC    C1125168  18.211   8.480  10.296  0.5239  0.7566  0.2407
 2289UDC     C125169  18.397  14.540  14.650 -0.4717  0.7937  1.2115
 2289UDC     C225170  18.482  14.605  14.762  0.3310 -0.4773 -0.6352
 2289UDC     C325171  18.440  14.559  14.905 -0.7526  0.8493 -0.1393
 2289UDC     C425172  18.307  14.602  14.969 -0.4502 -0.1730  0.2083
 2289UDC     C525173  18.266  14.488  15.064 -0.0955  1.2151 -1.1986
 2289UDC     C625174  18.204  14.375  14.982 -0.1746 -0.3378 -0.0991
 2289UDC     C725175  18.225  14.230  15.034  0.1431 -0.0683  0.8841
 2289UDC     C825176  18.366  14.207  15.095  0.8236 -0.6241  0.8092
 2289UDC     C925177  18.379  14.074  15.162  0.0474  0.7028 -0.3886
 2289UDC    C1025178  18.515  14.031  15.221  0.2803 -0.8361  1.0542
 2289UDC    C1125179  18.503  13.920  15.327 -0.0628  0.2144 -1.0373
 2290UDC     C125180   1.481   2.037   9.473  1.2211 -0.2767  0.8404
 2290UDC     C225181   1.620   2.041   9.411  0.7461 -1.2124 -0.3832
 2290UDC     C325182   1.734   2.084   9.494  0.0165  0.7731  0.4448
 2290UDC     C425183   1.869   2.056   9.425  0.7190  0.3263  0.4092
 2290UDC     C525184   2.008   2.073   9.495  0.0824 -0.5708 -0.6250
 2290UDC     C625185   2.022   1.961   9.600  0.2085 -0.3371 -0.4694
 2290UDC     C725186   2.174   1.970   9.614 -0.0641 -0.9149  0.8122
 2290UDC     C825187   2.228   1.916   9.479 -1.7377  0.2954  0.7425
 2290UDC     C925188   2.380   1.934   9.435 -0.0394 -0.4335  0.2761
 2290UDC    C1025189   2.400   1.863   9.299 -0.0828  0.3489  0.3465
 2290UDC    C1125190   2.312   1.883   9.171 -0.3266  0.4148 -0.3717
 2291UDC     C125191  19.471   6.143   5.389  0.5283  0.3976 -1.1607
 2291UDC     C225192  19.331   6.101   5.445  0.0893  0.1778 -1.2020
 2291UDC     C325193  19.317   6.129   5.598 -0.4964 -0.1211  1.1421
 2291UDC     C425194  19.173   6.095   5.648 -0.0885  0.7103 -0.2696
 2291UDC     C525195  19.168   6.066   5.797  0.2779 -0.2645 -1.0369
 2291UDC     C625196  19.134   5.914   5.801 -0.6641  0.7679  0.1081
 2291UDC     C725197  19.126   5.830   5.930 -0.0271 -0.3680  0.1598
 2291UDC     C825198  19.125   5.680   5.901  0.0930 -0.2972  0.9292
 2291UDC     C925199  19.272   5.619   5.898  0.4663  0.7580 -0.4319
 2291UDC    C1025200  19.300   5.472   5.861 -0.1447 -0.3511  0.1290
 2291UDC    C1125201  19.268   5.444   5.715  0.3199 -0.1265  0.6634
 2292UDC     C125202  17.575  17.528  18.292 -0.1911 -0.7269 -0.0070
 2292UDC     C225203  17.455  17.523  18.196  1.4949  0.0296 -0.6156
 2292UDC     C325204  17.460  17.581  18.060 -0.0472 -0.2230  0.4099
 2292UDC     C425205  17.569  17.526  17.969 -0.5203  0.2865 -0.6950
 2292UDC     C525206  17.546  17.576  17.831 -1.1281  0.1450 -0.8490
 2292UDC     C625207  17.406  17.636  17.812 -0.8028  0.3788  2.0028
 2292UDC     C725208  17.367  17.658  17.663 -0.0846 -1.3061  0.4998
 2292UDC     C825209  17.473  17.743  17.590 -0.4492  0.2132 -0.6488
 2292UDC     C925210  17.490  17.696  17.441  0.1648  0.1332  0.4331
 2292UDC    C1025211  17.606  17.740  17.352  1.0932 -1.0743  0.2922
 2292UDC    C1125212  17.743  17.725  17.420 -0.4139 -0.3250  0.0768
 2293UDC     C125213  10.846   0.455  14.546  0.4058 -0.8617  0.6872
 2293UDC     C225214  10.774   0.562  14.465 -0.8814  1.2410  0.5919
 2293UDC     C325215  10.665   0.635  14.534  0.1019  0.8967 -0.3696
 2293UDC     C425216  10.629   0.755  14.444  1.3897 -0.0096 -0.4521
 2293UDC     C525217  10.733   0.858  14.398 -0.1955  0.1632 -0.3741
 2293UDC     C625218  10.655   0.984  14.343 -0.1349 -0.1521  0.6309
 2293UDC     C725219  10.534   0.957  14.252 -0.1061  0.6824 -0.1790
 2293UDC     C825220  10.483   1.089  14.219  0.4492 -0.5248 -0.7067
 2293UDC     C925221  10.337   1.101  14.172 -0.1668  0.9472 -1.1230
 2293UDC    C1025222  10.233   1.100  14.278  0.3874  0.3317 -0.7102
 2293UDC    C1125223  10.238   1.216  14.376  0.4990 -0.0682  0.3996
 2294UDC     C125224   5.204   9.489   4.426 -0.3763  0.1881 -0.4337
 2294UDC     C225225   5.086   9.500   4.520 -0.6460 -0.7978 -0.0528
 2294UDC     C325226   5.131   9.496   4.666  0.6364 -1.4364 -0.4191
 2294UDC     C425227   5.114   9.360   4.712 -0.8849  0.9611 -0.8721
 2294UDC     C525228   4.975   9.304   4.676 -0.0780  0.7587  0.2939
 2294UDC     C625229   4.957   9.163   4.740 -0.2621 -0.5831 -1.3104
 2294UDC     C725230   5.062   9.047   4.718  1.5070  0.6365  0.2560
 2294UDC     C825231   5.055   8.924   4.816  1.3330 -1.0129 -0.1926
 2294UDC     C925232   5.184   8.844   4.817 -1.2471  0.1850  1.1552
 2294UDC    C1025233   5.310   8.927   4.830 -0.1915  0.4689 -0.1361
 2294UDC    C1125234   5.438   8.845   4.805  0.1925 -0.4748 -0.1912
 2295UDC     C125235   9.815   5.575  10.266  0.4288 -0.4201 -0.0185
 2295UDC     C225236   9.756   5.659  10.381  0.8165  0.0962 -0.3066
 2295UDC     C325237   9.741   5.808  10.339  0.0592  0.2884  0.2876
 2295UDC     C425238   9.688   5.850  10.200 -0.5053 -0.1028 -0.1104
 2295UDC     C525239   9.800   5.866  10.090  0.9784 -0.8365  0.7257
 2295UDC     C625240   9.929   5.923  10.155 -0.5989  0.7490  0.3811
 2295UDC     C725241   9.951   6.069  10.132 -0.6850 -0.0705  0.0933
 2295UDC     C825242  10.041   6.103  10.018 -0.4740 -0.6705  1.1424
 2295UDC     C925243  10.032   6.240   9.945  1.0692 -0.3807 -0.2356
 2295UDC    C1025244   9.884   6.279   9.923  0.4444  0.3597 -0.4360
 2295UDC    C1125245   9.861   6.315   9.774  0.0779 -0.3138 -0.6858
 2296UDC     C125246  17.278  18.968   6.539 -0.9186 -1.1816  0.3202
 2296UDC     C225247  17.176  19.069   6.486 -0.6201 -0.0337 -0.2960
 2296UDC     C325248  17.033  19.014   6.468 -0.8857  0.3593 -0.0910
 2296UDC     C425249  17.009  18.900   6.364  0.6894  0.1197 -0.3921
 2296UDC     C525250  16.865  18.858   6.329  0.8228 -0.7352  1.0005
 2296UDC     C625251  16.774  18.979   6.289  0.5084  1.1366  0.3571
 2296UDC     C725252  16.654  19.020   6.371  0.4123 -0.1227 -0.3548
 2296UDC     C825253  16.537  18.917   6.384  0.1419  0.4585  0.4198
 2296UDC     C925254  16.413  18.991   6.425 -0.5081 -0.2257  0.4995
 2296UDC    C1025255  16.446  19.028   6.572  0.2879 -1.0747  0.5108
 2296UDC    C1125256  16.339  19.108   6.637 -0.3521 -0.7102 -0.0661
 2297UDC     C125257   9.341   4.191  17.599 -0.0830  0.0456  0.3439
 2297UDC     C225258   9.399   4.275  17.483  0.1035  0.1015  0.6965
 2297UDC     C325259   9.345   4.233  17.344  0.0909  0.5320 -0.1370
 2297UDC     C425260   9.422   4.102  17.312 -1.2792  1.5135  1.6589
 2297UDC     C525261   9.323   4.022  17.224 -0.3054 -0.1776  1.1882
 2297UDC     C625262   9.364   3.872  17.231 -0.9516 -0.1664 -0.6013
 2297UDC     C725263   9.265   3.798  17.322 -0.0243  0.0716  0.6307
 2297UDC     C825264   9.321   3.665  17.370  0.3315 -0.4129  0.1499
 2297UDC     C925265   9.434   3.685  17.474  0.4341 -0.1300 -0.2331
 2297UDC    C1025266   9.464   3.560  17.557  0.9354 -0.4917 -0.2474
 2297UDC    C1125267   9.598   3.558  17.637 -1.5069 -0.1553  0.4374
 2298UDC     C125268  14.486   8.518   4.500 -0.6203  0.5090 -0.2079
 2298UDC     C225269  14.530   8.668   4.498  0.8476 -0.0044 -0.0236
 2298UDC     C325270  14.578   8.736   4.370 -0.2519 -0.0444  0.1928
 2298UDC     C425271  14.472   8.765   4.262  0.0292  0.9590  0.2741
 2298UDC     C525272  14.525   8.865   4.162 -0.3277 -1.1301 -0.8516
 2298UDC     C625273  14.433   8.845   4.037  0.2986  0.3754  0.1711
 2298UDC     C725274  14.306   8.753   4.030 -0.4394 -0.2897  0.0003
 2298UDC     C825275  14.229   8.759   3.896  0.5652 -0.4744 -0.3423
 2298UDC     C925276  14.309   8.730   3.772 -1.0560 -0.3493 -0.7911
 2298UDC    C1025277  14.248   8.781   3.635  0.0144 -0.3117 -0.4819
 2298UDC    C1125278  14.247   8.938   3.644 -0.7889  0.3455  0.5127
 2299UDC     C125279  14.388  10.072   6.224 -1.1227  0.2533  1.3469
 2299UDC     C225280  14.361  10.050   6.075  0.7122  0.0149 -0.2996
 2299UDC     C325281  14.465  10.018   5.967  0.0286  0.0030  0.4270
 2299UDC     C425282  14.388   9.996   5.835  0.5229 -0.2523  0.3083
 2299UDC     C525283  14.362  10.138   5.774  0.0450  0.1670 -0.3150
 2299UDC     C625284  14.480  10.179   5.678  0.2718  0.2737 -0.0209
 2299UDC     C725285  14.536  10.094   5.568  0.7444 -0.2801 -0.2629
 2299UDC     C825286  14.623  10.173   5.464 -0.4610 -0.4805  0.3008
 2299UDC     C925287  14.685  10.100   5.351 -0.1411  0.4885 -0.8125
 2299UDC    C1025288  14.784  10.175   5.253  0.5206 -0.0972 -0.0292
 2299UDC    C1125289  14.908  10.220   5.325  0.1312 -0.0266 -0.4306
 2300UDC     C125290   7.458  14.744  15.280  0.1472  0.6001 -0.2332
 2300UDC     C225291   7.299  14.730  15.266 -1.6224 -0.9607  0.6349
 2300UDC     C325292   7.214  14.774  15.385 -0.6012 -0.0172 -0.9348
 2300UDC     C425293   7.133  14.652  15.436 -0.3579 -0.1055 -0.2085
 2300UDC     C525294   7.056  14.579  15.324  0.2510 -0.5958 -1.2503
 2300UDC     C625295   6.973  14.454  15.358 -0.1152  0.9035  0.6511
 2300UDC     C725296   7.038  14.328  15.405 -0.1356  0.2991  0.1751
 2300UDC     C825297   6.943  14.229  15.465 -0.9302 -0.3039 -0.8356
 2300UDC     C925298   7.009  14.090  15.475 -0.4534  0.8034 -1.5079
 2300UDC    C1025299   7.129  14.086  15.578 -0.0823  0.2932 -0.2280
 2300UDC    C1125300   7.109  13.968  15.680 -0.0160 -0.4266  0.2818
 2301UDC     C125301  13.546   9.822  13.563  0.5025  0.7029 -0.0050
 2301UDC     C225302  13.561   9.960  13.493 -0.7042  0.2246  0.9783
 2301UDC     C325303  13.697  10.032  13.498  0.4136 -0.9444  0.3610
 2301UDC     C425304  13.700  10.169  13.422 -0.2475  1.2178 -1.1998
 2301UDC     C525305  13.827  10.259  13.445 -0.0857  0.2990  0.2646
 2301UDC     C625306  13.825  10.381  13.351  0.1350 -0.0556  0.3932
 2301UDC     C725307  13.843  10.334  13.211 -0.4009 -1.0703  0.2292
 2301UDC     C825308  13.982  10.263  13.212  0.1071 -0.1169  0.0131
 2301UDC     C925309  14.075  10.273  13.093 -0.1479 -0.1213  0.1588
 2301UDC    C1025310  14.228  10.283  13.112  0.6952 -0.0559 -0.8203
 2301UDC    C1125311  14.275  10.422  13.157  0.1277 -0.5160  0.2583
 2302UDC     C125312   9.789   9.486  11.963  0.5702 -0.7378  0.9467
 2302UDC     C225313   9.706   9.382  11.891  0.2451  0.1225  1.2099
 2302UDC     C325314   9.734   9.229  11.914  0.2236 -0.1345 -0.7620
 2302UDC     C425315   9.661   9.144  11.808  0.5885  0.2810 -0.4400
 2302UDC     C525316   9.530   9.203  11.771 -0.3640 -0.0508 -1.2528
 2302UDC     C625317   9.463   9.140  11.657  0.0111  0.7233  0.4398
 2302UDC     C725318   9.394   9.001  11.677  0.0785 -0.5928 -0.5395
 2302UDC     C825319   9.266   8.999  11.766 -0.7503 -0.6238  0.0879
 2302UDC     C925320   9.222   8.862  11.813 -0.5770 -0.1033 -0.5404
 2302UDC    C1025321   9.088   8.866  11.892 -1.3499 -0.3227  0.6929
 2302UDC    C1125322   8.967   8.938  11.830 -0.1926 -0.6095  1.6408
 2303UDC     C125323   2.276   3.960  15.641 -0.6499 -0.0477  1.5989
 2303UDC     C225324   2.262   3.852  15.535  0.4220  1.0862 -0.3039
 2303UDC     C325325   2.125   3.770  15.559  0.1787  0.3829 -0.4796
 2303UDC     C425326   2.139   3.620  15.521  1.3126  0.8417 -0.0412
 2303UDC     C525327   2.010   3.535  15.506  0.6107 -1.3906  0.8446
 2303UDC     C625328   1.910   3.573  15.383  0.0313  0.4703  0.2971
 2303UDC     C725329   1.795   3.472  15.358  0.2517  0.3101 -0.1701
 2303UDC     C825330   1.695   3.458  15.472 -0.4232  1.2891  0.1707
 2303UDC     C925331   1.565   3.378  15.442 -0.1308  0.9226  0.3925
 2303UDC    C1025332   1.577   3.231  15.393 -0.5119  0.5766 -1.4029
 2303UDC    C1125333   1.450   3.148  15.400 -1.2004 -0.1508  0.1818
 2304UDC     C125334  17.402   3.858   8.244 -0.9130  0.3191 -0.7734
 2304UDC     C225335  17.534   3.887   8.170  0.2164 -0.2622 -0.9594
 2304UDC     C325336  17.527   3.905   8.018  0.6673 -0.7245 -0.2244
 2304UDC     C425337  17.464   3.794   7.938  0.2694 -0.6321 -0.4395
 2304UDC     C525338  17.488   3.794   7.787 -0.0320 -0.3369  0.0990
 2304UDC     C625339  17.377   3.723   7.702  0.1971  0.0390  0.2164
 2304UDC     C725340  17.375   3.755   7.550 -0.3817 -0.1799 -0.0498
 2304UDC     C825341  17.236   3.774   7.472 -0.0076  0.0626  0.5616
 2304UDC     C925342  17.262   3.805   7.325  0.6563  0.2434 -0.4146
 2304UDC    C1025343  17.323   3.692   7.240 -0.5269  1.0539 -0.2351
 2304UDC    C1125344  17.293   3.717   7.092 -0.2076 -0.0007 -0.1940
 2305UDC     C125345   9.691   9.346  13.836  0.2817 -0.5347 -0.0219
 2305UDC     C225346   9.714   9.283  13.972 -1.3338 -0.6388  0.8055
 2305UDC     C325347   9.695   9.386  14.081 -0.1943  0.2473  0.2754
 2305UDC     C425348   9.640   9.511  14.015  0.8387 -0.3211 -0.5934
 2305UDC     C525349   9.629   9.633  14.111  0.8393  0.1138  0.6747
 2305UDC     C625350   9.740   9.632  14.227  0.6239 -0.2535  0.7881
 2305UDC     C725351   9.735   9.748  14.339 -1.1795  0.3481  0.1408
 2305UDC     C825352   9.799   9.882  14.287 -0.8970 -0.9566  0.3298
 2305UDC     C925353   9.763   9.940  14.151  0.9635  0.2780 -0.7533
 2305UDC    C1025354   9.810  10.076  14.092 -0.0339  0.0624  1.0584
 2305UDC    C1125355   9.966  10.081  14.111  0.0077  0.0764  0.5931
 2306UDC     C125356  17.994  14.231   4.570 -0.0997  0.7619 -0.0090
 2306UDC     C225357  18.087  14.183   4.457  1.3188 -0.5230 -0.0307
 2306UDC     C325358  18.088  14.281   4.335  0.0297  0.1055 -0.2063
 2306UDC     C425359  18.167  14.208   4.224 -0.7231 -1.0100  0.0015
 2306UDC     C525360  18.169  14.293   4.093  0.5979  0.2886  1.0468
 2306UDC     C625361  18.226  14.241   3.962  0.5484  1.0002  0.8157
 2306UDC     C725362  18.224  14.314   3.831 -0.2271  0.3271 -0.2508
 2306UDC     C825363  18.342  14.256   3.752  0.7126  0.0369  0.3120
 2306UDC     C925364  18.312  14.125   3.669 -0.0233 -0.1238  0.5543
 2306UDC    C1025365  18.218  14.121   3.553  0.3395  0.4747  0.0578
 2306UDC    C1125366  18.220  13.985   3.482 -0.0821  0.5003 -0.3550
 2307UDC     C125367   5.826  16.465   0.916  0.2886 -0.2017 -0.6923
 2307UDC     C225368   5.922  16.473   0.795 -0.3070 -0.2249 -0.1104
 2307UDC     C325369   6.003  16.597   0.816  0.2313 -0.5081 -0.5134
 2307UDC     C425370   5.895  16.714   0.786 -0.8413 -1.1133  0.7716
 2307UDC     C525371   5.966  16.847   0.810 -0.7976  0.2713  0.5653
 2307UDC     C625372   5.867  16.956   0.762 -0.8706  0.0497 -0.2801
 2307UDC     C725373   5.923  17.096   0.796  0.2238  0.1429 -0.6931
 2307UDC     C825374   5.834  17.216   0.759 -0.4081  0.2661  0.0705
 2307UDC     C925375   5.767  17.180   0.629  1.0660  0.5302  0.0868
 2307UDC    C1025376   5.856  17.241   0.518  1.0118 -0.2689  0.1702
 2307UDC    C1125377   5.899  17.376   0.588  0.7722 -0.0055  0.3354
 2308UDC     C125378   4.209  17.389  14.772 -0.7519 -0.1026  0.9184
 2308UDC     C225379   4.090  17.287  14.776  0.4437  0.4268 -0.5930
 2308UDC     C325380   4.122  17.172  14.693  0.1600  1.8922 -0.3409
 2308UDC     C425381   4.082  17.185  14.549  0.4889 -1.1360 -0.6008
 2308UDC     C525382   3.930  17.202  14.507 -0.1062 -1.2565 -0.0162
 2308UDC     C625383   3.892  17.228  14.357  0.7574 -0.4398  1.0592
 2308UDC     C725384   3.754  17.279  14.328  1.5289 -0.1608  0.9046
 2308UDC     C825385   3.754  17.372  14.203 -0.4851 -0.5911 -0.2831
 2308UDC     C925386   3.621  17.413  14.142 -0.2095  0.6089  0.7731
 2308UDC    C1025387   3.631  17.540  14.067 -1.0383  0.6996 -1.1659
 2308UDC    C1125388   3.522  17.563  13.959 -0.4000  0.0997 -0.5038
 2309UDC     C125389  19.195  11.142  16.347 -0.0752  0.2518  0.2526
 2309UDC     C225390  19.148  11.246  16.243 -0.3105 -0.7296 -1.8784
 2309UDC     C325391  18.994  11.275  16.262 -0.3615 -0.0459  0.4137
 2309UDC     C425392  18.928  11.284  16.397 -0.0206 -0.0206 -0.0418
 2309UDC     C525393  18.801  11.209  16.387  0.2631  0.7475  0.4170
 2309UDC     C625394  18.676  11.279  16.323 -0.6409  0.5449  0.4589
 2309UDC     C725395  18.607  11.407  16.379  0.5543 -0.2278 -0.8766
 2309UDC     C825396  18.561  11.402  16.528  0.3668 -0.7422 -0.4276
 2309UDC     C925397  18.456  11.514  16.574  0.0445  1.4363 -0.0068
 2309UDC    C1025398  18.469  11.593  16.706  0.3372  0.4645 -0.0675
 2309UDC    C1125399  18.592  11.562  16.790  0.4346  0.6094  0.6728
 2310UDC     C125400  11.915   6.823   2.662 -0.1186 -0.1779 -0.1132
 2310UDC     C225401  11.856   6.680   2.689  0.1275 -0.2690 -0.4946
 2310UDC     C325402  11.983   6.595   2.701 -0.0317 -0.0799 -0.0553
 2310UDC     C425403  11.944   6.443   2.732  0.1439  0.4940 -0.7701
 2310UDC     C525404  11.815   6.421   2.657  0.1173  1.0007 -0.4027
 2310UDC     C625405  11.698   6.343   2.719 -0.3445  0.7183  1.1255
 2310UDC     C725406  11.587   6.437   2.772 -0.5401 -0.3144  0.0529
 2310UDC     C825407  11.472   6.347   2.826  0.6913 -0.1191 -0.1797
 2310UDC     C925408  11.371   6.416   2.924 -0.6867 -0.6966  0.9200
 2310UDC    C1025409  11.255   6.321   2.942 -0.4381 -0.7406  0.0481
 2310UDC    C1125410  11.129   6.383   2.885 -0.3367 -0.3017  0.3454
 2311UDC     C125411  19.753   5.839  17.996 -0.0642 -0.0297 -0.7519
 2311UDC     C225412  19.747   5.697  17.928 -0.6042 -0.4161  0.3894
 2311UDC     C325413  19.606   5.660  17.873  0.6049  0.4053  0.3855
 2311UDC     C425414  19.598   5.511  17.849  0.0046  0.3276  0.4305
 2311UDC     C525415  19.472   5.459  17.781  0.3477  1.1908  0.1401
 2311UDC     C625416  19.478   5.303  17.765 -0.7722  0.2200  0.5754
 2311UDC     C725417  19.346   5.237  17.739 -0.0842  1.0089  0.4383
 2311UDC     C825418  19.336   5.084  17.751  0.5597 -0.0725 -0.6232
 2311UDC     C925419  19.194   5.040  17.709 -0.2891  0.0242  0.4320
 2311UDC    C1025420  19.183   4.891  17.697  0.1218 -0.3826 -0.3416
 2311UDC    C1125421  19.176   4.815  17.830 -0.3013  0.4333  0.2249
 2312UDC     C125422   9.304   4.465   7.796  0.0861  0.4341  0.6837
 2312UDC     C225423   9.276   4.484   7.945 -1.2443  0.5526 -0.8054
 2312UDC     C325424   9.204   4.376   8.028  1.4139 -0.9297  0.2406
 2312UDC     C425425   9.244   4.395   8.181  0.2115 -0.7351  1.0953
 2312UDC     C525426   9.392   4.376   8.192 -0.5202  0.2023  0.0534
 2312UDC     C625427   9.453   4.418   8.325 -0.5608 -0.1402 -0.0393
 2312UDC     C725428   9.605   4.447   8.330  0.0956 -0.5938  0.9456
 2312UDC     C825429   9.638   4.592   8.309  0.7085  0.4357 -0.4622
 2312UDC     C925430   9.778   4.621   8.255 -0.1338 -0.2806 -0.0891
 2312UDC    C1025431   9.819   4.757   8.199 -0.5819 -0.3875 -0.8049
 2312UDC    C1125432   9.854   4.765   8.053  0.2639  0.2279  1.1276
 2313UDC     C125433  10.846  13.646   4.864 -0.4339 -0.0368 -0.5866
 2313UDC     C225434  10.923  13.769   4.898 -0.0770  0.6407  0.3906
 2313UDC     C325435  10.965  13.863   4.782  0.5901 -0.6490  0.1546
 2313UDC     C425436  11.011  13.998   4.834 -0.0437 -0.1952 -0.5108
 2313UDC     C525437  11.004  14.107   4.718  0.4997  1.0487 -0.7369
 2313UDC     C625438  10.874  14.187   4.698 -0.2428  0.7017 -0.0178
 2313UDC     C725439  10.878  14.299   4.807 -0.2870 -0.1479 -0.8314
 2313UDC     C825440  10.771  14.288   4.913  0.3633 -1.3691  0.5577
 2313UDC     C925441  10.625  14.299   4.866 -0.0434 -0.6614 -0.5562
 2313UDC    C1025442  10.530  14.352   4.971  0.1432 -1.6897  1.2159
 2313UDC    C1125443  10.604  14.450   5.063 -0.5293 -0.2654  0.2494
 2314UDC     C125444  17.601  16.561  18.568 -1.4859 -0.5783  0.5266
 2314UDC     C225445  17.481  16.488  18.633  0.2433 -0.5497  0.2373
 2314UDC     C325446  17.375  16.594  18.690 -1.3082 -0.0062 -0.0043
 2314UDC     C425447  17.287  16.568  18.808 -0.6970  1.4244 -0.2112
 2314UDC     C525448  17.192  16.695  18.810 -0.3968 -1.3378 -0.9668
 2314UDC     C625449  17.246  16.835  18.782 -0.6363  0.3284 -0.0328
 2314UDC     C725450  17.143  16.951  18.813 -0.1408  0.7906 -0.2602
 2314UDC     C825451  17.186  17.090  18.832 -0.4211  0.5414 -1.1162
 2314UDC     C925452  17.065  17.172  18.879 -0.0010 -0.3538  0.3317
 2314UDC    C1025453  16.962  17.166  18.758  0.4690 -0.7867 -0.9328
 2314UDC    C1125454  16.822  17.228  18.800  0.3458  0.8042 -0.5152
 2315UDC     C125455   5.437   0.497   7.017 -0.8702  0.1591  0.5147
 2315UDC     C225456   5.564   0.430   7.087 -0.3038 -0.1065  0.3595
 2315UDC     C325457   5.680   0.528   7.107  1.2287  0.1244 -0.7071
 2315UDC     C425458   5.771   0.558   6.980  0.2893  0.6526  0.6060
 2315UDC     C525459   5.836   0.446   6.903  0.4219  0.3106  1.3220
 2315UDC     C625460   5.974   0.420   6.944  0.8947  0.3311  0.3436
 2315UDC     C725461   6.098   0.514   6.920 -0.7334 -0.6025  0.1477
 2315UDC     C825462   6.215   0.484   7.013  0.2973 -0.1664  0.1894
 2315UDC     C925463   6.327   0.588   7.017  0.1620  0.3351 -0.8312
 2315UDC    C1025464   6.428   0.584   6.889  0.1870  1.1329 -0.4860
 2315UDC    C1125465   6.393   0.650   6.753 -0.3351  0.2640 -1.2789
 2316UDC     C125466  13.427   0.699   3.392 -0.1560  0.5682  0.4065
 2316UDC     C225467  13.582   0.732   3.403 -0.1056  1.2907  1.3482
 2316UDC     C325468  13.672   0.601   3.432  0.9270 -1.4928  0.5633
 2316UDC     C425469  13.630   0.481   3.357 -0.0248  0.7648 -0.2584
 2316UDC     C525470  13.691   0.345   3.383  0.2344  0.5183 -0.5538
 2316UDC     C625471  13.639   0.245   3.279  0.3710 -0.3874  0.0363
 2316UDC     C725472  13.729   0.119   3.268 -0.3648 -0.1255 -0.1896
 2316UDC     C825473  13.643   0.032   3.177 -0.9728 -0.3766  0.8366
 2316UDC     C925474  13.497   0.006   3.220  0.2091  0.2992  0.3513
 2316UDC    C1025475  13.432  -0.113   3.142  0.2698 -0.7853 -0.6251
 2316UDC    C1125476  13.425  -0.121   2.992 -0.4842 -0.2056 -0.2077
 2317UDC     C125477  13.798   7.657   3.974  0.3716  1.5949 -0.0588
 2317UDC     C225478  13.951   7.624   4.000  1.4197  0.0194 -0.5419
 2317UDC     C325479  14.007   7.498   3.932 -0.0060  0.5129 -0.9835
 2317UDC     C425480  14.100   7.408   4.017 -0.5229 -0.1939 -1.1013
 2317UDC     C525481  14.048   7.324   4.127  1.0818 -0.3903  0.1751
 2317UDC     C625482  14.164   7.272   4.213  0.9688  0.5416 -0.9174
 2317UDC     C725483  14.166   7.345   4.345  0.2220 -0.5908  0.0353
 2317UDC     C825484  14.179   7.255   4.468  0.3702  0.0606 -0.0619
 2317UDC     C925485  14.193   7.362   4.581  0.3591 -1.1984  1.0013
 2317UDC    C1025486  14.180   7.305   4.725 -0.5650 -0.1596 -0.4537
 2317UDC    C1125487  14.132   7.420   4.817  0.6575 -0.1397  0.2227
 2318UDC     C125488   8.627   6.332   9.307 -0.6621 -0.5340  1.4466
 2318UDC     C225489   8.765   6.367   9.246  1.0324  0.4412  0.5443
 2318UDC     C325490   8.838   6.271   9.149 -0.4790  0.1542  0.1503
 2318UDC     C425491   8.964   6.345   9.117 -0.3481 -0.3259  0.7067
 2318UDC     C525492   9.082   6.375   9.214  0.4124  0.9986 -0.8168
 2318UDC     C625493   9.190   6.460   9.151  0.4562 -0.7754  0.2374
 2318UDC     C725494   9.178   6.614   9.148 -1.2682 -0.1964 -0.0888
 2318UDC     C825495   9.126   6.653   9.287  0.6846  0.0624  0.0440
 2318UDC     C925496   9.110   6.806   9.312  0.2496  1.2557 -0.9214
 2318UDC    C1025497   9.235   6.876   9.262  0.4278  0.0968 -0.0284
 2318UDC    C1125498   9.356   6.867   9.359 -0.1500  0.1870 -0.1179
 2319UDC     C125499   7.937  19.653  11.268  0.4820 -0.2424  0.7869
 2319UDC     C225500   7.977  19.509  11.229 -0.9016  1.0424 -0.2400
 2319UDC     C325501   8.116  19.489  11.161  0.3554  0.2877  0.8118
 2319UDC     C425502   8.180  19.361  11.209 -0.1508 -0.7559 -1.0938
 2319UDC     C525503   8.107  19.241  11.152 -0.7548  0.4445 -0.5808
 2319UDC     C625504   8.159  19.196  11.013  0.2036  0.6198  0.4130
 2319UDC     C725505   8.076  19.105  10.915  0.8215 -0.1322  0.1011
 2319UDC     C825506   7.929  19.164  10.887 -0.0813 -0.7589  0.2727
 2319UDC     C925507   7.850  19.083  10.785 -0.8871 -0.1325 -0.5826
 2319UDC    C1025508   7.940  19.046  10.669  0.0650  0.4362  0.0760
 2319UDC    C1125509   7.881  18.953  10.568 -0.1595  0.6419  0.2365
 2320UDC     C125510   4.147   0.161   2.320 -0.2230  0.5340 -0.6264
 2320UDC     C225511   4.259   0.086   2.389 -0.7452  0.5006 -0.1035
 2320UDC     C325512   4.315   0.162   2.512  0.2016 -0.5497 -0.0452
 2320UDC     C425513   4.315   0.312   2.483  0.1715 -0.1443 -0.1102
 2320UDC     C525514   4.292   0.423   2.586  0.7729 -0.9404  0.1333
 2320UDC     C625515   4.327   0.554   2.514  0.2182  0.1073 -0.3965
 2320UDC     C725516   4.481   0.561   2.501  0.5545 -0.3544  0.7764
 2320UDC     C825517   4.531   0.700   2.459 -0.3384 -0.4219  0.4110
 2320UDC     C925518   4.526   0.800   2.574  0.0934 -0.9104 -0.2110
 2320UDC    C1025519   4.591   0.766   2.709  0.2158 -0.9627  0.2252
 2320UDC    C1125520   4.569   0.895   2.789  0.9686 -0.1018 -0.6219
 2321UDC     C125521   5.886   6.655  12.196 -1.0903 -0.4552  1.1024
 2321UDC     C225522   5.797   6.532  12.181  0.1212 -0.6695 -0.7463
 2321UDC     C325523   5.809   6.480  12.321 -0.8223 -0.4365 -0.1826
 2321UDC     C425524   5.729   6.550  12.434 -0.3232  0.3897  0.7259
 2321UDC     C525525   5.751   6.478  12.571  0.7725  0.1409 -0.3951
 2321UDC     C625526   5.889   6.429  12.580 -0.4418 -0.3360 -0.1220
 2321UDC     C725527   5.957   6.416  12.718  0.8329 -0.9649  0.4553
 2321UDC     C825528   6.053   6.298  12.737 -1.2932 -0.2728  0.0501
 2321UDC     C925529   6.083   6.259  12.883 -0.5945  0.2076 -0.6051
 2321UDC    C1025530   6.142   6.116  12.891 -0.0536 -0.3199  0.0276
 2321UDC    C1125531   6.221   6.085  13.017  0.1700 -0.2143  0.4189
 2322UDC     C125532  18.292  17.549  14.149 -0.6533 -0.5233 -0.3725
 2322UDC     C225533  18.426  17.484  14.116  0.2687 -0.7280  0.2087
 2322UDC     C325534  18.427  17.334  14.105  0.8289 -0.3056 -0.0912
 2322UDC     C425535  18.537  17.277  14.018 -0.5683  0.1134 -0.3405
 2322UDC     C525536  18.683  17.306  14.074  1.5758 -0.1612  0.4322
 2322UDC     C625537  18.760  17.381  13.966 -0.4129  0.5311  0.1327
 2322UDC     C725538  18.899  17.421  14.014 -0.1530  0.9748 -0.7139
 2322UDC     C825539  18.890  17.548  14.102  0.8848 -0.0107 -0.3340
 2322UDC     C925540  19.016  17.642  14.128  1.1612  0.2365 -0.2024
 2322UDC    C1025541  18.984  17.775  14.189  0.2396  0.5151 -0.6061
 2322UDC    C1125542  19.095  17.831  14.290 -0.6116  0.9231 -0.0635
 2323UDC     C125543  17.291   0.442   3.297  0.6150 -0.2316 -0.4373
 2323UDC     C225544  17.171   0.437   3.203 -0.1521  1.2550  0.6398
 2323UDC     C325545  17.167   0.535   3.089 -0.6525  0.4441 -0.5728
 2323UDC     C425546  17.063   0.490   2.990 -0.1388  1.6912 -0.1557
 2323UDC     C525547  16.923   0.505   3.051 -0.2064 -0.5395 -1.3635
 2323UDC     C625548  16.839   0.378   3.115  0.3292 -0.9171  0.1598
 2323UDC     C725549  16.692   0.420   3.158 -0.6255  0.2116 -1.0089
 2323UDC     C825550  16.691   0.545   3.237  1.1265 -0.8879 -0.1412
 2323UDC     C925551  16.559   0.596   3.305  0.0677  0.0988  0.3040
 2323UDC    C1025552  16.577   0.628   3.449 -0.6567 -1.1555  1.5250
 2323UDC    C1125553  16.687   0.728   3.450  0.0310 -0.5973 -0.0260
 2324UDC     C125554   7.998  17.098   8.629 -0.2752  0.4208 -0.6926
 2324UDC     C225555   8.009  17.213   8.738 -0.4906  0.3281  1.5138
 2324UDC     C325556   8.134  17.301   8.713  0.4411 -0.2734  0.4200
 2324UDC     C425557   8.179  17.330   8.565 -0.7437 -0.2084  0.4519
 2324UDC     C525558   8.321  17.282   8.533  0.7446  0.3017 -0.7109
 2324UDC     C625559   8.428  17.273   8.641 -0.7414  0.5415  1.2023
 2324UDC     C725560   8.564  17.212   8.617  0.3789  0.2768  1.1687
 2324UDC     C825561   8.656  17.212   8.735  0.0848  0.9694  0.9623
 2324UDC     C925562   8.805  17.203   8.687 -0.0537 -0.0064  0.5666
 2324UDC    C1025563   8.904  17.209   8.799 -0.0284  0.2385 -0.4968
 2324UDC    C1125564   9.044  17.208   8.746 -0.2873  0.4228  0.2903
 2325UDC     C125565   9.996   8.296  15.984  1.1202  0.5245 -0.7845
 2325UDC     C225566   9.917   8.368  16.097  0.5294  0.1428 -0.2561
 2325UDC     C325567   9.962   8.327  16.233 -0.2019  0.6212  0.1338
 2325UDC     C425568   9.862   8.381  16.339 -0.1675  0.8894  0.1523
 2325UDC     C525569   9.906   8.391  16.482 -0.6531 -0.5179 -1.1522
 2325UDC     C625570  10.047   8.441  16.488 -0.3045  0.3249 -0.6306
 2325UDC     C725571  10.115   8.427  16.627 -1.3903 -0.6179 -0.7565
 2325UDC     C825572  10.263   8.414  16.589 -0.6329  0.0514  0.4650
 2325UDC     C925573  10.284   8.314  16.474  0.5198 -0.1669  1.3259
 2325UDC    C1025574  10.352   8.193  16.531 -0.7171 -0.0717  0.3424
 2325UDC    C1125575  10.423   8.096  16.433 -0.4836 -0.6667  0.3887
 2326UDC     C125576   0.905  12.024   3.895  0.9526 -1.0813  0.7149
 2326UDC     C225577   0.939  11.949   3.765 -0.4136 -0.8478 -0.4832
 2326UDC     C325578   0.954  11.797   3.792  0.6618  0.6252 -0.2169
 2326UDC     C425579   0.824  11.713   3.804 -0.2387  0.0787 -0.5439
 2326UDC     C525580   0.847  11.562   3.762 -0.2729 -0.8723  0.5643
 2326UDC     C625581   0.724  11.477   3.717 -0.1011  1.4813  1.0045
 2326UDC     C725582   0.772  11.328   3.734  0.9267 -1.1017 -0.3552
 2326UDC     C825583   0.795  11.273   3.881  0.8215  0.1643 -0.7160
 2326UDC     C925584   0.821  11.120   3.900  0.3739  0.0433 -0.2340
 2326UDC    C1025585   0.839  11.081   4.048 -0.4136 -1.0894  0.7670
 2326UDC    C1125586   0.956  11.152   4.117  0.9319 -0.7839  0.4534
 2327UDC     C125587   5.042  12.509   2.407  0.1373 -0.3333 -0.3046
 2327UDC     C225588   5.064  12.662   2.389 -0.9404  0.2129  1.6147
 2327UDC     C325589   5.115  12.698   2.248 -0.3298 -0.6006  1.2676
 2327UDC     C425590   5.204  12.602   2.175 -0.0195  0.3518  0.3001
 2327UDC     C525591   5.246  12.657   2.038 -0.8217 -0.8732 -0.3612
 2327UDC     C625592   5.369  12.593   1.977  0.4345 -1.4963 -0.0583
 2327UDC     C725593   5.382  12.642   1.836  0.4320  0.6072  1.2163
 2327UDC     C825594   5.520  12.596   1.773  1.3500  0.2776  0.5010
 2327UDC     C925595   5.497  12.581   1.626 -0.0531  0.4284  0.0553
 2327UDC    C1025596   5.420  12.702   1.557  0.3838  0.1089  0.4141
 2327UDC    C1125597   5.399  12.699   1.400  0.4857  0.2485  0.1342
 2328UDC     C125598   6.593   0.822  14.541 -0.5969 -0.1444  0.0694
 2328UDC     C225599   6.653   0.955  14.592 -0.3990 -0.7760 -0.0024
 2328UDC     C325600   6.737   0.937  14.726 -0.5403  1.4189  0.5222
 2328UDC     C425601   6.873   0.897  14.666  0.1255  0.1610  0.3787
 2328UDC     C525602   6.941   1.023  14.614 -0.1290  1.0863  0.1424
 2328UDC     C625603   7.050   1.064  14.712 -0.2493  0.0954  0.2185
 2328UDC     C725604   6.994   1.061  14.857 -0.1207  0.7168 -0.1151
 2328UDC     C825605   7.117   1.099  14.942 -0.2377 -0.3322  0.6814
 2328UDC     C925606   7.048   1.071  15.074 -0.3842 -0.3399 -1.2013
 2328UDC    C1025607   7.118   1.118  15.206 -0.5521 -0.0130 -0.4943
 2328UDC    C1125608   7.253   1.059  15.256 -0.3874 -0.2449 -0.4537
 2329UDC     C125609  18.708  17.866  12.536  0.7902 -0.0458  0.4831
 2329UDC     C225610  18.616  17.857  12.662 -0.2323 -0.1353  0.8488
 2329UDC     C325611  18.615  17.989  12.748  0.8010  0.4723  0.2719
 2329UDC     C425612  18.556  18.118  12.675 -0.2725 -0.8429 -0.4948
 2329UDC     C525613  18.514  18.235  12.771 -0.1173  0.2480 -0.1660
 2329UDC     C625614  18.465  18.368  12.720  0.3497  0.3211 -0.9917
 2329UDC     C725615  18.589  18.462  12.731 -0.1969 -0.0410  0.3709
 2329UDC     C825616  18.569  18.612  12.680 -0.7846 -0.9034  0.1284
 2329UDC     C925617  18.682  18.717  12.684  0.1051  0.2078  0.6372
 2329UDC    C1025618  18.800  18.689  12.593 -0.1955  0.4423 -0.5055
 2329UDC    C1125619  18.917  18.790  12.597 -0.1553 -0.2402 -0.5369
 2330UDC     C125620  18.701  16.741  15.987  0.6552 -1.0184 -0.5216
 2330UDC     C225621  18.602  16.713  16.107  0.0158  0.2485  0.8708
 2330UDC     C325622  18.470  16.651  16.072 -0.7676  0.5464 -0.3873
 2330UDC     C425623  18.380  16.745  15.992 -0.2879  0.7914  0.0104
 2330UDC     C525624  18.232  16.724  15.958 -0.4928  1.1896  0.1366
 2330UDC     C625625  18.126  16.819  16.021 -0.9681 -0.3088  0.4833
 2330UDC     C725626  17.982  16.789  15.973  0.1936  1.0183 -1.0701
 2330UDC     C825627  17.939  16.654  16.043 -1.4433 -0.3617 -0.3355
 2330UDC     C925628  17.798  16.609  16.008  0.0408 -0.1518  0.5151
 2330UDC    C1025629  17.809  16.519  15.882  0.3047 -0.1170 -0.1141
 2330UDC    C1125630  17.677  16.447  15.841 -0.0267  0.4015  0.0068
 2331UDC     C125631   9.721  14.692  15.533  0.3649 -0.2390  0.5295
 2331UDC     C225632   9.798  14.786  15.440 -0.6793  1.3626  0.6491
 2331UDC     C325633   9.897  14.881  15.497 -0.8836 -0.0303 -0.8209
 2331UDC     C425634  10.047  14.869  15.448  0.9303 -0.5897 -0.0745
 2331UDC     C525635  10.138  14.903  15.569 -0.5395 -0.3078  0.0581
 2331UDC     C625636  10.171  14.784  15.660 -0.4154 -0.0692  0.1767
 2331UDC     C725637  10.227  14.848  15.785  0.6963 -0.0144  1.0478
 2331UDC     C825638  10.377  14.818  15.779 -0.0751  1.2108  1.2592
 2331UDC     C925639  10.455  14.862  15.902  0.5235 -0.3338  0.3542
 2331UDC    C1025640  10.407  15.007  15.903  0.4591 -0.8862 -0.2500
 2331UDC    C1125641  10.508  15.081  15.982  0.9462 -0.5618 -0.1973
 2332UDC     C125642  11.577   9.184  11.215  0.4209  0.0637 -0.6666
 2332UDC     C225643  11.659   9.318  11.207  0.7146 -0.0743  0.5935
 2332UDC     C325644  11.793   9.299  11.276 -0.1413 -0.1942 -0.4516
 2332UDC     C425645  11.886   9.423  11.263  0.0362  0.2057  0.3792
 2332UDC     C525646  11.813   9.547  11.328 -0.3254  0.9594 -1.0290
 2332UDC     C625647  11.876   9.682  11.285  0.5426  0.6107 -0.7863
 2332UDC     C725648  11.817   9.783  11.385  1.0556  0.3339  0.6279
 2332UDC     C825649  11.891   9.916  11.363 -0.6591 -1.0856 -0.6187
 2332UDC     C925650  12.043   9.895  11.389  0.2390  0.2371 -0.0935
 2332UDC    C1025651  12.127  10.018  11.412 -0.1951  0.1865 -0.1980
 2332UDC    C1125652  12.057  10.155  11.435 -0.0129  0.6640 -0.1661
 2333UDC     C125653   1.883  15.988   1.115 -0.9743 -0.6237  0.1279
 2333UDC     C225654   1.846  16.008   0.965 -0.9040 -0.2605  0.3788
 2333UDC     C325655   1.712  16.071   0.927  0.0262  0.1801 -0.3278
 2333UDC     C425656   1.681  16.179   1.031 -0.7679  1.3851 -0.7180
 2333UDC     C525657   1.569  16.278   1.022  0.2664  0.9437 -0.6033
 2333UDC     C625658   1.608  16.413   0.968 -0.1130 -0.4272  0.6406
 2333UDC     C725659   1.644  16.429   0.820 -0.1036  0.7466 -1.0173
 2333UDC     C825660   1.724  16.542   0.755  0.4274  0.2150 -0.7519
 2333UDC     C925661   1.666  16.556   0.612 -0.1496  0.4665 -0.3285
 2333UDC    C1025662   1.691  16.684   0.534  0.5113 -0.6817 -0.6880
 2333UDC    C1125663   1.584  16.785   0.561  0.7098  1.0284 -0.4098
 2334UDC     C125664   7.410   7.182  18.868  0.1292 -0.1580 -0.6122
 2334UDC     C225665   7.358   7.330  18.852 -0.0678 -0.0161 -0.0765
 2334UDC     C325666   7.337   7.413  18.975 -1.2421  0.0896  0.5392
 2334UDC     C425667   7.281   7.552  18.952  0.6933  0.3158  0.3880
 2334UDC     C525668   7.267   7.627  19.094 -0.8518  0.4826 -0.0504
 2334UDC     C625669   7.386   7.625  19.190 -0.6557 -0.2297  0.0563
 2334UDC     C725670   7.382   7.722  19.310  0.1689 -0.1613  0.8818
 2334UDC     C825671   7.473   7.679  19.425 -0.3943 -0.3399 -0.4614
 2334UDC     C925672   7.568   7.796  19.455 -0.3609  1.5791  1.0248
 2334UDC    C1025673   7.706   7.774  19.390  1.0887 -0.3224 -0.2962
 2334UDC    C1125674   7.786   7.903  19.350  0.4753  0.1125 -0.4591
 2335UDC     C125675  13.556  14.219   2.955  1.2455  0.4239  0.7504
 2335UDC     C225676  13.481  14.301   3.062  0.4780  0.3216 -1.0336
 2335UDC     C325677  13.363  14.240   3.140  0.3871  0.0172 -1.4021
 2335UDC     C425678  13.261  14.350   3.183 -0.7046  0.8317  0.7020
 2335UDC     C525679  13.182  14.329   3.311 -0.2671  1.2736 -0.3349
 2335UDC     C625680  13.144  14.187   3.346  0.7444  0.6050 -0.1342
 2335UDC     C725681  13.099  14.162   3.488  0.5302  0.2541  0.6448
 2335UDC     C825682  13.004  14.041   3.504  0.3173  0.0844  0.3485
 2335UDC     C925683  12.981  13.989   3.644  0.0278  0.3636  0.0771
 2335UDC    C1025684  12.847  13.914   3.653  0.6068 -0.8344 -0.0185
 2335UDC    C1125685  12.860  13.798   3.748  0.0382  0.7810  0.6898
 2336UDC     C125686   8.570  13.968  18.240  0.8893  1.4334 -0.7552
 2336UDC     C225687   8.478  14.090  18.261 -0.0296 -0.2330  0.3068
 2336UDC     C325688   8.334  14.084  18.209  0.2376  0.9100  0.4339
 2336UDC     C425689   8.271  14.219  18.173 -0.6871 -0.5745  0.1611
 2336UDC     C525690   8.227  14.296  18.301 -0.5824 -0.5542 -0.1866
 2336UDC     C625691   8.148  14.426  18.288 -0.3976 -0.3416 -0.1324
 2336UDC     C725692   8.028  14.407  18.192  0.2887 -0.5405 -1.2469
 2336UDC     C825693   7.918  14.330  18.263 -0.2358  0.5521 -0.5683
 2336UDC     C925694   7.817  14.255  18.173 -1.2925 -0.9882  1.2589
 2336UDC    C1025695   7.863  14.124  18.112  0.3338 -0.5784  0.3616
 2336UDC    C1125696   7.908  14.020  18.207 -1.0265  0.1866  0.2668
 2337UDC     C125697   0.931   1.593   2.358  0.3471  0.1328  0.3983
 2337UDC     C225698   1.050   1.546   2.269 -0.2560  0.1151  0.9925
 2337UDC     C325699   1.185   1.493   2.328  0.9881  0.7524  0.7439
 2337UDC     C425700   1.191   1.381   2.441 -0.5767 -0.6006  0.6642
 2337UDC     C525701   1.338   1.338   2.446 -1.2357 -0.2794 -1.3386
 2337UDC     C625702   1.363   1.235   2.556  0.0767  0.3147  0.4316
 2337UDC     C725703   1.508   1.184   2.532  0.4118 -0.5678 -0.0244
 2337UDC     C825704   1.541   1.113   2.402 -0.5575  0.2399 -1.1292
 2337UDC     C925705   1.471   0.975   2.373 -1.0650  0.3123 -1.5433
 2337UDC    C1025706   1.527   0.918   2.239  0.2735  0.0477  0.1681
 2337UDC    C1125707   1.433   0.806   2.188  0.5842 -0.5352 -1.1851
 2338UDC     C125708   4.876   8.120   7.825 -0.2197 -1.1194 -0.8666
 2338UDC     C225709   4.879   8.181   7.969  1.1491  0.2791  0.5496
 2338UDC     C325710   4.967   8.080   8.046  0.0336 -0.1040 -0.0529
 2338UDC     C425711   5.028   7.968   7.958 -1.0416 -1.1548  1.1307
 2338UDC     C525712   5.130   7.881   8.037 -0.7367 -0.5747 -0.7447
 2338UDC     C625713   5.269   7.931   8.028 -0.1909  0.7488 -1.7179
 2338UDC     C725714   5.276   8.006   8.166  0.3110 -0.6258  0.6239
 2338UDC     C825715   5.408   8.060   8.227 -0.0828 -0.9083 -0.0324
 2338UDC     C925716   5.381   8.126   8.362 -0.0083 -0.1625  0.6890
 2338UDC    C1025717   5.458   8.247   8.403 -1.2121  0.3962 -0.6879
 2338UDC    C1125718   5.393   8.296   8.538  0.2703  0.7396  0.5155
 2339UDC     C125719  12.328  13.441   2.565  1.0223 -0.9309 -0.1383
 2339UDC     C225720  12.254  13.332   2.655 -0.1444  0.4450  1.0976
 2339UDC     C325721  12.340  13.220   2.715  0.1165  0.3130  0.6064
 2339UDC     C425722  12.269  13.135   2.823  0.5958 -0.1512  0.7983
 2339UDC     C525723  12.212  13.211   2.945  0.0744  0.1371 -0.2118
 2339UDC     C625724  12.147  13.144   3.065 -0.5015 -0.0959 -0.2924
 2339UDC     C725725  12.233  13.033   3.124  0.0680 -0.5915 -1.1728
 2339UDC     C825726  12.147  12.952   3.214  1.0714  1.9546  0.3633
 2339UDC     C925727  12.220  12.844   3.306 -1.0814 -0.0174 -0.5208
 2339UDC    C1025728  12.364  12.875   3.344 -0.4922 -0.4290 -0.3207
 2339UDC    C1125729  12.422  12.754   3.419  0.7018 -0.4823 -0.1918
 2340UDC     C125730  14.520  12.980  12.991 -0.4931  0.5697 -0.8133
 2340UDC     C225731  14.492  13.025  12.845 -0.6481  0.0821 -0.3296
 2340UDC     C325732  14.487  13.178  12.832 -0.6047  1.2971  0.3121
 2340UDC     C425733  14.389  13.249  12.912 -0.1901 -0.4518  0.1827
 2340UDC     C525734  14.336  13.345  12.804 -0.6677  0.6163 -0.1699
 2340UDC     C625735  14.276  13.474  12.858 -0.1634 -0.5504 -1.3420
 2340UDC     C725736  14.120  13.471  12.864  0.0452  1.0771  0.0186
 2340UDC     C825737  14.056  13.579  12.951  0.6983 -0.1381 -1.0790
 2340UDC     C925738  13.922  13.638  12.899  0.6647 -0.0179 -0.2420
 2340UDC    C1025739  13.873  13.713  13.029 -0.0060  0.2132  0.9539
 2340UDC    C1125740  13.842  13.623  13.145  2.0443 -0.3310 -1.0867
 2341UDC     C125741  14.000  18.161   5.257 -0.0542  0.1756 -0.9660
 2341UDC     C225742  14.003  18.290   5.343  0.4429 -0.6880  0.6917
 2341UDC     C325743  14.132  18.381   5.309  1.1256  0.8807 -0.0475
 2341UDC     C425744  14.253  18.294   5.309 -0.0641 -0.3904 -0.3628
 2341UDC     C525745  14.319  18.264   5.450 -0.3287  1.1206  1.3594
 2341UDC     C625746  14.442  18.362   5.465 -0.3214  0.0125  0.4226
 2341UDC     C725747  14.513  18.333   5.601  0.0296  0.3030  0.6374
 2341UDC     C825748  14.655  18.363   5.609 -0.1866  0.0442 -0.1333
 2341UDC     C925749  14.712  18.379   5.749 -0.2092 -0.4478  0.0641
 2341UDC    C1025750  14.681  18.522   5.804  1.0384 -0.2318  0.9441
 2341UDC    C1125751  14.725  18.564   5.944 -0.3060 -0.3370 -0.4521
 2342UDC     C125752   7.309   1.572   9.230  0.5640 -0.0503  0.6239
 2342UDC     C225753   7.427   1.487   9.173  0.2111  0.0726  0.4923
 2342UDC     C325754   7.386   1.335   9.168 -1.0771 -0.1125  0.5627
 2342UDC     C425755   7.427   1.256   9.042  0.2254  0.0131 -0.2003
 2342UDC     C525756   7.396   1.106   9.026 -0.5324 -0.6590 -0.4672
 2342UDC     C625757   7.482   1.033   9.130 -0.2817  0.1446  0.3096
 2342UDC     C725758   7.481   0.884   9.097  0.4683 -0.2102 -0.1486
 2342UDC     C825759   7.568   0.862   8.975  0.1734 -0.2096  0.3014
 2342UDC     C925760   7.600   0.708   8.945 -0.1791 -0.3206 -1.5109
 2342UDC    C1025761   7.638   0.654   8.805  0.1442 -0.1731  0.7986
 2342UDC    C1125762   7.718   0.760   8.731  0.0971  0.4260  0.1001
 2343UDC     C125763  16.680  10.118  19.735 -0.4828  0.7111 -0.6130
 2343UDC     C225764  16.573  10.213  19.662 -0.3954  0.1700  0.3112
 2343UDC     C325765  16.442  10.220  19.734  0.4613 -0.2474 -0.2708
 2343UDC     C425766  16.363  10.086  19.760 -0.3004  0.1358  0.7072
 2343UDC     C525767  16.388   9.990  19.638 -0.0460 -0.7002 -0.2598
 2343UDC     C625768  16.328  10.019  19.499  0.2740  0.0976 -0.7847
 2343UDC     C725769  16.175   9.994  19.476  0.5081  1.0501 -0.6330
 2343UDC     C825770  16.133   9.847  19.440  0.5604 -0.3764  0.2733
 2343UDC     C925771  16.125   9.728  19.538 -0.2603 -0.0558 -0.6131
 2343UDC    C1025772  16.084   9.588  19.469  0.0956  0.3904  0.0557
 2343UDC    C1125773  15.935   9.591  19.439  0.4770  0.6846 -0.4802
 2344UDC     C125774   4.196  14.692  10.509 -0.6175  0.0467  1.2128
 2344UDC     C225775   4.090  14.592  10.461 -0.1788 -0.3496  0.5699
 2344UDC     C325776   4.134  14.511  10.341  0.8868 -0.5534  0.6292
 2344UDC     C425777   4.034  14.409  10.274 -0.6356 -1.2832  1.0806
 2344UDC     C525778   4.092  14.409  10.130  0.5782  0.0547 -0.7161
 2344UDC     C625779   4.226  14.326  10.148  0.5468 -0.4327 -0.9702
 2344UDC     C725780   4.288  14.296  10.015  0.1138 -0.4467 -0.2744
 2344UDC     C825781   4.348  14.422   9.939  0.3342  0.0923 -0.1744
 2344UDC     C925782   4.398  14.389   9.795 -0.3853  0.9806 -0.3094
 2344UDC    C1025783   4.534  14.440   9.737  0.2916  0.6012 -0.8174
 2344UDC    C1125784   4.545  14.577   9.674 -0.2913  0.1916 -0.9881
 2345UDC     C125785   8.826   4.301  15.318  0.9956  1.0977  0.0685
 2345UDC     C225786   8.786   4.149  15.331 -0.7054 -0.1390  0.2025
 2345UDC     C325787   8.829   4.061  15.446 -0.3813 -0.5558 -0.1193
 2345UDC     C425788   8.730   3.944  15.461  0.1258 -0.8092 -0.7751
 2345UDC     C525789   8.804   3.815  15.413  0.3533 -0.1453  0.2808
 2345UDC     C625790   8.733   3.684  15.450 -0.1269 -0.8183  0.2667
 2345UDC     C725791   8.828   3.565  15.433 -0.0827 -1.6792  0.1386
 2345UDC     C825792   8.776   3.454  15.353 -0.0044  0.3831  0.9412
 2345UDC     C925793   8.876   3.343  15.319  0.3111 -0.2949  1.3399
 2345UDC    C1025794   8.793   3.226  15.259  1.3097 -0.6803  0.7136
 2345UDC    C1125795   8.685   3.181  15.354 -0.1034  0.0050 -0.4627
 2346UDC     C125796  10.177  11.597  18.605 -0.0641 -0.0003 -1.0635
 2346UDC     C225797  10.262  11.597  18.489 -0.1105 -0.3205  0.5548
 2346UDC     C325798  10.191  11.660  18.372 -0.5432 -0.0345 -0.7921
 2346UDC     C425799  10.269  11.722  18.259 -0.5025 -0.1395 -0.0213
 2346UDC     C525800  10.169  11.777  18.159 -1.0796  1.2755  0.4046
 2346UDC     C625801  10.230  11.831  18.028 -0.6089 -0.1948  0.4905
 2346UDC     C725802  10.124  11.843  17.913  0.3200 -0.4623 -0.5637
 2346UDC     C825803  10.069  11.703  17.869 -0.6225 -0.4604 -0.1405
 2346UDC     C925804   9.911  11.708  17.872  0.9426 -0.3333 -0.5985
 2346UDC    C1025805   9.839  11.585  17.922  0.0563  0.8360 -0.7398
 2346UDC    C1125806   9.693  11.634  17.969 -0.1695 -0.7314 -0.3382
 2347UDC     C125807  13.554  19.706  10.105 -0.2990  0.8645  0.7150
 2347UDC     C225808  13.614  19.747   9.972 -0.1483  1.0664 -0.7390
 2347UDC     C325809  13.613  19.629   9.873 -0.2171  1.0956  0.8512
 2347UDC     C425810  13.573  19.665   9.728  0.2280  1.0857 -0.4493
 2347UDC     C525811  13.678  19.716   9.622  0.4212  0.6752  0.2397
 2347UDC     C625812  13.760  19.821   9.690  0.8995 -0.0341  0.0025
 2347UDC     C725813  13.876  19.855   9.616 -0.2194  0.4659 -0.5678
 2347UDC     C825814  13.848  19.933   9.479 -0.0862 -1.1927  0.4049
 2347UDC     C925815  13.933  20.049   9.423  0.1950  0.5092 -0.3998
 2347UDC    C1025816  13.937  20.067   9.265  0.4140  0.6225  0.3543
 2347UDC    C1125817  13.815  20.138   9.199 -0.8806  0.8802  0.3640
 2348UDC     C125818   1.348   3.512   4.993 -0.0859  0.2281 -0.3918
 2348UDC     C225819   1.488   3.565   5.013  0.1733 -0.5030 -0.1202
 2348UDC     C325820   1.505   3.663   5.132  0.1726 -0.1275 -0.3767
 2348UDC     C425821   1.376   3.749   5.127 -0.1391 -0.4728 -0.4920
 2348UDC     C525822   1.384   3.872   5.219  0.6436 -0.2868  0.7646
 2348UDC     C625823   1.505   3.963   5.200  0.6093  0.7630  1.1832
 2348UDC     C725824   1.530   4.004   5.051 -0.9722 -0.7951  0.8661
 2348UDC     C825825   1.463   4.132   5.010 -0.3692  0.3904  0.2216
 2348UDC     C925826   1.440   4.171   4.860  0.1125  1.4579  0.0547
 2348UDC    C1025827   1.355   4.294   4.835  0.4956  0.9441  0.1537
 2348UDC    C1125828   1.345   4.325   4.683 -0.0959 -0.2688  0.4172
 2349UDC     C125829   7.539  10.996   1.321  0.8675 -1.0268  0.8795
 2349UDC     C225830   7.656  11.002   1.419 -0.5732  0.5098 -1.1147
 2349UDC     C325831   7.770  11.100   1.386  1.2323  0.7853  1.1726
 2349UDC     C425832   7.785  11.123   1.234  0.0812  0.9987 -0.2227
 2349UDC     C525833   7.880  11.230   1.186  0.5665 -0.6343  0.5783
 2349UDC     C625834   7.916  11.249   1.034 -0.2333 -0.1394  0.6277
 2349UDC     C725835   7.924  11.115   0.968  0.4427  0.2210 -1.2036
 2349UDC     C825836   7.914  11.114   0.811  0.3852  0.0123 -0.4090
 2349UDC     C925837   7.900  10.977   0.746 -0.5150  0.1877 -0.6378
 2349UDC    C1025838   7.909  10.979   0.590 -1.7058  0.1752 -1.0834
 2349UDC    C1125839   8.038  11.039   0.518 -0.8434 -0.9841  0.3378
 2350UDC     C125840  15.115   0.792  13.013 -0.7374  0.5042  0.4828
 2350UDC     C225841  15.245   0.784  13.103 -0.9556 -0.0169 -0.9575
 2350UDC     C325842  15.319   0.657  13.064 -0.0258  0.0180 -0.6816
 2350UDC     C425843  15.337   0.675  12.912 -0.3731 -0.0755 -0.1741
 2350UDC     C525844  15.412   0.553  12.851 -0.2344 -0.8578 -0.3230
 2350UDC     C625845  15.435   0.436  12.933 -0.9479  0.8357 -0.0572
 2350UDC     C725846  15.512   0.307  12.881  0.2714  0.0736  0.5247
 2350UDC     C825847  15.578   0.310  12.740  0.1379 -0.4242  0.2131
 2350UDC     C925848  15.569   0.170  12.671  0.1405 -0.5564  0.5948
 2350UDC    C1025849  15.434   0.102  12.644  0.0948  0.2147  0.5981
 2350UDC    C1125850  15.468  -0.043  12.580  0.1657 -0.9573  0.1954
 2351UDC     C125851  19.408   5.635  15.982  0.5791  0.4178 -0.6103
 2351UDC     C225852  19.378   5.776  15.928 -0.3028 -0.9167 -0.5469
 2351UDC     C325853  19.354   5.862  16.059  0.8115  0.0179  0.6770
 2351UDC     C425854  19.281   5.997  16.032 -1.4543 -0.7506 -0.8063
 2351UDC     C525855  19.198   6.069  16.151  0.2511  1.2077 -0.3021
 2351UDC     C625856  19.132   6.194  16.090  0.0820 -0.2232 -0.0654
 2351UDC     C725857  19.242   6.300  16.078 -0.7943 -0.4090 -0.3175
 2351UDC     C825858  19.190   6.440  16.058  0.9914 -0.3543 -0.2249
 2351UDC     C925859  19.240   6.551  16.144  0.4998  0.0268 -0.0119
 2351UDC    C1025860  19.206   6.691  16.094 -0.8880  0.0251 -0.0119
 2351UDC    C1125861  19.303   6.741  15.984  1.0310  0.6860 -0.5166
 2352UDC     C125862  11.066   7.258   4.713  0.1103 -0.4864  0.6455
 2352UDC     C225863  11.157   7.145   4.720 -0.1597  0.7974 -0.5293
 2352UDC     C325864  11.115   7.053   4.602 -0.0015  0.7303  0.4515
 2352UDC     C425865  10.972   7.002   4.645  0.2238 -0.6311  0.6320
 2352UDC     C525866  10.986   6.897   4.751  0.7507  0.4094 -1.0079
 2352UDC     C625867  11.074   6.777   4.725  0.1632 -0.5363 -0.8524
 2352UDC     C725868  11.079   6.659   4.835 -1.4354 -0.9664  0.6215
 2352UDC     C825869  11.192   6.559   4.803  0.3195 -0.2229 -0.2591
 2352UDC     C925870  11.143   6.421   4.860  0.3581  0.6453  0.1605
 2352UDC    C1025871  11.003   6.374   4.824  1.4812  0.0948  1.0907
 2352UDC    C1125872  10.941   6.243   4.889 -0.1704  0.3670 -0.1785
 2353UDC     C125873  14.324   7.594  16.419  1.0253  0.1334  0.6518
 2353UDC     C225874  14.240   7.580  16.542  0.6979  0.1842 -1.1651
 2353UDC     C325875  14.092   7.613  16.543 -0.2449  0.2128  0.4901
 2353UDC     C425876  14.020   7.549  16.653 -0.2609  0.2684 -0.2321
 2353UDC     C525877  13.889   7.480  16.615  0.5846  0.0627 -0.4282
 2353UDC     C625878  13.769   7.537  16.708  0.6077  0.1048  0.4526
 2353UDC     C725879  13.801   7.479  16.849  0.4981  0.4442 -0.1080
 2353UDC     C825880  13.675   7.494  16.943  0.2852 -0.4461 -0.4087
 2353UDC     C925881  13.648   7.635  16.983  0.1724  0.2889 -0.6812
 2353UDC    C1025882  13.680   7.661  17.135  0.1946 -0.5195  0.5338
 2353UDC    C1125883  13.629   7.807  17.170  0.0695  0.6274 -0.3151
 2354UDC     C125884   0.010  18.139  13.664  0.3081 -0.4088  0.4319
 2354UDC     C225885   0.071  18.034  13.572 -1.0696 -0.0995 -0.3484
 2354UDC     C325886   0.198  17.962  13.634  0.2436  0.4113  0.0234
 2354UDC     C425887   0.215  17.809  13.576  1.0225 -0.6151 -1.4603
 2354UDC     C525888   0.097  17.711  13.613 -0.5979  0.0046  0.1403
 2354UDC     C625889   0.115  17.569  13.561  0.0305  0.2028  0.0853
 2354UDC     C725890  -0.013  17.487  13.524 -0.4257  0.3392 -0.6739
 2354UDC     C825891   0.027  17.355  13.459  0.7462  0.3278  0.7719
 2354UDC     C925892  -0.102  17.257  13.446 -0.1652 -0.5168  1.5947
 2354UDC    C1025893  -0.078  17.146  13.345  0.6746  0.2240  0.9465
 2354UDC    C1125894  -0.221  17.096  13.305 -0.0224 -0.7877 -0.2910
 2355UDC     C125895  12.939  14.313   5.778 -1.6595 -1.1189 -0.4162
 2355UDC     C225896  12.999  14.256   5.905 -0.2244 -1.4663 -0.2597
 2355UDC     C325897  13.099  14.141   5.870  0.3045 -0.1473  0.3513
 2355UDC     C425898  13.142  14.044   5.980 -0.7455  0.9624  0.9422
 2355UDC     C525899  13.274  13.981   5.934 -0.2157 -0.2012  0.5071
 2355UDC     C625900  13.246  13.879   5.818 -0.0378 -0.0462 -0.3223
 2355UDC     C725901  13.375  13.835   5.753 -0.5869 -0.0608  0.1827
 2355UDC     C825902  13.353  13.771   5.615 -0.3445  0.1926 -0.5504
 2355UDC     C925903  13.480  13.681   5.606  0.5062 -0.0941  0.2725
 2355UDC    C1025904  13.522  13.671   5.456 -0.4481  0.0026 -0.4763
 2355UDC    C1125905  13.421  13.620   5.350 -0.7372 -0.0114  0.2300
 2356UDC     C125906   1.671   7.541   4.392 -0.8165 -0.1890 -1.2218
 2356UDC     C225907   1.735   7.438   4.297  0.6371 -0.3569  0.6877
 2356UDC     C325908   1.817   7.514   4.196 -1.1514 -0.3211 -0.0454
 2356UDC     C425909   1.749   7.607   4.104 -0.4172 -0.1012  0.0791
 2356UDC     C525910   1.844   7.706   4.024 -0.7253 -0.7827 -0.3807
 2356UDC     C625911   1.766   7.818   3.959  0.4138  0.5296 -0.0883
 2356UDC     C725912   1.845   7.936   3.885  0.1718 -0.2392  0.7674
 2356UDC     C825913   1.949   8.002   3.977  0.5284 -0.4151  0.8972
 2356UDC     C925914   1.877   8.078   4.082 -0.2613 -0.4511 -0.0550
 2356UDC    C1025915   1.991   8.125   4.177 -0.9501 -0.0312  0.1401
 2356UDC    C1125916   1.936   8.204   4.306 -0.6074 -0.8862  0.9406
 2357UDC     C125917   8.655   0.429   5.580 -0.5534 -0.7508 -0.1687
 2357UDC     C225918   8.692   0.371   5.719 -0.2058  0.8473 -0.0606
 2357UDC     C325919   8.606   0.252   5.754  0.2807 -0.1321 -0.0199
 2357UDC     C425920   8.454   0.281   5.777 -0.6112 -0.2124  0.2297
 2357UDC     C525921   8.390   0.142   5.809  0.1579  0.3909  0.5257
 2357UDC     C625922   8.434   0.010   5.740  0.4483 -0.3669 -0.7512
 2357UDC     C725923   8.329  -0.104   5.736  0.1254  0.1694  0.3219
 2357UDC     C825924   8.213  -0.115   5.640 -0.0959  0.4170 -0.0007
 2357UDC     C925925   8.121   0.011   5.658  0.3223  0.4690  0.4216
 2357UDC    C1025926   7.982  -0.005   5.592 -0.2325 -0.5128  0.5797
 2357UDC    C1125927   7.876   0.060   5.683  1.5181 -0.4233  0.1085
 2358UDC     C125928  18.158  19.676  19.394 -0.4546 -0.2051  0.9674
 2358UDC     C225929  18.062  19.642  19.505  1.5912  0.0889  0.2589
 2358UDC     C325930  17.907  19.654  19.473 -1.3302  0.9306  0.2165
 2358UDC     C425931  17.878  19.555  19.357 -0.5869 -0.6988 -0.2612
 2358UDC     C525932  17.836  19.623  19.230 -0.4147  0.6183  1.4384
 2358UDC     C625933  17.829  19.534  19.102 -0.0732  0.4353  0.0750
 2358UDC     C725934  17.945  19.611  19.028 -0.3315 -0.8675 -1.0437
 2358UDC     C825935  17.984  19.532  18.905  0.4838 -1.1636  1.0131
 2358UDC     C925936  18.126  19.553  18.841 -0.1660 -0.1659 -0.2317
 2358UDC    C1025937  18.177  19.445  18.747 -0.7293  0.6995 -0.3052
 2358UDC    C1125938  18.320  19.476  18.692  0.4334 -0.9743 -0.6729
 2359UDC     C125939   7.744  10.403  14.324  0.6425 -0.9661  0.5448
 2359UDC     C225940   7.809  10.542  14.280 -0.8373  0.0259  1.2132
 2359UDC     C325941   7.904  10.609  14.370 -0.4239  0.0829  0.2562
 2359UDC     C425942   8.024  10.675  14.298 -0.4762  0.7684  1.1543
 2359UDC     C525943   7.996  10.813  14.232 -0.5445 -0.2237  0.6828
 2359UDC     C625944   8.120  10.896  14.195  0.3592 -0.0374  0.6491
 2359UDC     C725945   8.198  10.935  14.316 -0.3045 -0.3083 -0.6020
 2359UDC     C825946   8.347  10.936  14.287  0.5734  0.4663  0.5786
 2359UDC     C925947   8.454  10.980  14.387  0.4050 -0.7787  0.7438
 2359UDC    C1025948   8.448  11.112  14.456  1.6963 -0.6471  0.1635
 2359UDC    C1125949   8.585  11.140  14.496 -0.6387  0.3251 -0.2767
 2360UDC     C125950  18.651  14.776  10.766 -1.0292 -0.5891  0.1322
 2360UDC     C225951  18.711  14.918  10.799 -0.2247 -0.4625 -0.1420
 2360UDC     C325952  18.625  15.045  10.802 -0.5823  0.4751  0.2139
 2360UDC     C425953  18.687  15.156  10.886  0.1062 -0.6342  1.2032
 2360UDC     C525954  18.821  15.217  10.854  0.2233  0.4023  1.0936
 2360UDC     C625955  18.839  15.343  10.953 -0.3428 -0.5994  0.6008
 2360UDC     C725956  18.947  15.432  10.884  0.8360 -1.0416 -0.9369
 2360UDC     C825957  18.984  15.573  10.941  0.2844  0.0640  0.1794
 2360UDC     C925958  19.049  15.572  11.080 -0.6766 -0.6145 -0.3630
 2360UDC    C1025959  19.165  15.472  11.105  0.4005  0.0171 -0.0890
 2360UDC    C1125960  19.216  15.448  11.247  0.2471  0.7303 -0.6841
 2361UDC     C125961  14.280  19.303   1.917  0.1623 -0.2349  1.1369
 2361UDC     C225962  14.187  19.429   1.873  0.6804  0.0406  0.0771
 2361UDC     C325963  14.257  19.531   1.779 -0.0689 -0.3963 -0.6805
 2361UDC     C425964  14.152  19.617   1.703 -1.2237  1.0283 -0.1960
 2361UDC     C525965  14.217  19.708   1.600 -0.0066 -0.9751  0.2634
 2361UDC     C625966  14.271  19.658   1.463  0.2444  0.1129  0.7370
 2361UDC     C725967  14.164  19.574   1.371  0.0016  0.3155 -1.6962
 2361UDC     C825968  14.183  19.505   1.236  0.2818 -0.1161  0.5862
 2361UDC     C925969  14.077  19.389   1.231  1.0031 -0.1826 -0.9554
 2361UDC    C1025970  13.926  19.427   1.263  0.1448  0.6323 -0.5567
 2361UDC    C1125971  13.861  19.297   1.317 -0.8710  0.5128 -0.2845
 2362UDC     C125972  13.999  16.247   4.654  0.5268 -1.0251 -0.9549
 2362UDC     C225973  13.951  16.105   4.697  0.7546  0.4860  0.5960
 2362UDC     C325974  13.873  16.027   4.595 -0.1153  0.0876  0.1412
 2362UDC     C425975  13.831  15.885   4.635 -0.0283  0.0325  0.2529
 2362UDC     C525976  13.799  15.903   4.787 -0.0968  0.2933 -0.0632
 2362UDC     C625977  13.753  15.787   4.876 -0.3817  0.7572  0.1437
 2362UDC     C725978  13.770  15.832   5.024 -0.6387 -0.3739 -0.6585
 2362UDC     C825979  13.722  15.726   5.121  0.4207  1.2000 -1.0574
 2362UDC     C925980  13.716  15.751   5.273 -0.0557  0.0518  0.9547
 2362UDC    C1025981  13.733  15.646   5.387  0.2237  0.1068 -0.2734
 2362UDC    C1125982  13.643  15.707   5.496 -0.1538  0.2876 -1.4240
 2363UDC     C125983  10.499  11.708   6.352  0.2617  0.9037 -0.0610
 2363UDC     C225984  10.452  11.749   6.210  0.0568 -0.6975  0.7024
 2363UDC     C325985  10.554  11.745   6.091  0.8125  0.5261 -0.6944
 2363UDC     C425986  10.518  11.843   5.980  0.5398 -0.2740  0.0467
 2363UDC     C525987  10.591  11.816   5.848  0.9350 -0.8701  0.4748
 2363UDC     C625988  10.732  11.860   5.832 -0.5197 -0.5174 -0.7379
 2363UDC     C725989  10.850  11.787   5.908  1.4237 -0.2299 -0.7497
 2363UDC     C825990  10.967  11.742   5.824  0.6606 -0.9678  0.0736
 2363UDC     C925991  11.106  11.769   5.880  0.9158 -0.8012  0.2736
 2363UDC    C1025992  11.198  11.803   5.767  0.8283  0.7006 -0.5200
 2363UDC    C1125993  11.342  11.838   5.808  0.4415  0.1422  0.1753
 2364UDC     C125994   2.720  16.621   1.962 -0.3523 -0.2791  0.3179
 2364UDC     C225995   2.691  16.593   2.112 -0.4380 -0.0967  0.1317
 2364UDC     C325996   2.743  16.463   2.174  0.1961 -0.2821 -1.3796
 2364UDC     C425997   2.899  16.456   2.189 -0.9803  0.0510  0.3492
 2364UDC     C525998   2.956  16.327   2.232  0.5581  0.3264  0.4540
 2364UDC     C625999   2.887  16.264   2.357  0.4943 -1.0085 -0.7378
 2364UDC     C726000   2.981  16.200   2.461 -0.3703  0.4406  0.1801
 2364UDC     C826001   3.043  16.061   2.428  0.9962  0.1048  0.9727
 2364UDC     C926002   3.153  16.022   2.526  0.2071 -0.5602  0.7582
 2364UDC    C1026003   3.119  16.074   2.666  0.0885 -1.3966 -0.9529
 2364UDC    C1126004   3.219  16.051   2.777  0.3319  0.4635  0.5984
 2365UDC     C126005  18.734  19.984  18.361  0.0812  0.9166 -0.2543
 2365UDC     C226006  18.873  19.959  18.412  0.6074  0.5365 -0.7134
 2365UDC     C326007  18.936  19.819  18.414 -0.7504  0.2894  0.6142
 2365UDC     C426008  19.080  19.802  18.450  0.2580 -1.2226  0.0052
 2365UDC     C526009  19.173  19.798  18.322  0.5579  0.7405  0.2094
 2365UDC     C626010  19.324  19.783  18.350  0.3166 -1.6180  0.4825
 2365UDC     C726011  19.368  19.649  18.430  0.4618 -0.8040  1.1499
 2365UDC     C826012  19.345  19.514  18.359  0.3484 -0.3839 -0.7110
 2365UDC     C926013  19.402  19.527  18.221  0.3539 -1.0168 -0.2355
 2365UDC    C1026014  19.550  19.573  18.224  0.4643 -0.2304  0.4575
 2365UDC    C1126015  19.615  19.567  18.082  0.1738 -0.1941 -1.1402
 2366UDC     C126016   5.793  14.340   2.194 -0.2724  0.5388  0.8501
 2366UDC     C226017   5.827  14.300   2.045  0.2971  1.2619 -0.9129
 2366UDC     C326018   5.920  14.399   1.969  0.7509  0.8854 -0.2390
 2366UDC     C426019   5.921  14.378   1.814 -0.2815  0.1271 -0.0010
 2366UDC     C526020   6.058  14.409   1.747  0.8065  0.2008  0.4267
 2366UDC     C626021   6.123  14.551   1.755 -0.1614 -0.5838 -0.6545
 2366UDC     C726022   6.265  14.573   1.682  0.2628  0.6114 -0.3959
 2366UDC     C826023   6.385  14.593   1.781  0.4980 -0.8139  1.0784
 2366UDC     C926024   6.516  14.628   1.708  0.4642 -0.8511 -1.6519
 2366UDC    C1026025   6.578  14.511   1.634  0.3434 -0.4820 -0.1539
 2366UDC    C1126026   6.618  14.392   1.719  0.0072  0.3306 -0.5597
 2367UDC     C126027   7.274  11.575  16.708 -0.0435  0.5769 -0.5735
 2367UDC     C226028   7.272  11.419  16.702  0.1246  0.0708  0.6484
 2367UDC     C326029   7.171  11.342  16.779 -0.0393 -0.3428 -1.8501
 2367UDC     C426030   7.035  11.308  16.719  0.5510  0.3262  0.0800
 2367UDC     C526031   7.044  11.236  16.583  0.0085 -0.4327  0.7344
 2367UDC     C626032   6.916  11.278  16.502 -0.8878  0.4034  1.1875
 2367UDC     C726033   6.790  11.230  16.573  0.6017  1.0605 -0.3820
 2367UDC     C826034   6.786  11.081  16.617 -0.3701 -0.9206 -0.4963
 2367UDC     C926035   6.651  11.037  16.669 -0.1071 -0.3272  0.6476
 2367UDC    C1026036   6.665  10.910  16.757  0.5921 -0.2938 -0.3467
 2367UDC    C1126037   6.767  10.815  16.696  0.0707 -1.0482 -0.4750
 2368UDC     C126038  10.642  13.220  19.218 -0.1288  0.2722  0.3533
 2368UDC     C226039  10.586  13.258  19.085  1.3226 -0.5345  0.5144
 2368UDC     C326040  10.481  13.376  19.083 -0.0962 -1.0338  0.5405
 2368UDC     C426041  10.560  13.508  19.103 -0.0134  0.0522 -0.5199
 2368UDC     C526042  10.476  13.627  19.065 -0.1478  0.3526  0.3528
 2368UDC     C626043  10.347  13.635  19.140  0.3963 -0.1219 -0.8952
 2368UDC     C726044  10.259  13.758  19.082  0.4668  0.8620 -0.3526
 2368UDC     C826045  10.172  13.719  18.956  0.5597  0.1330  0.3478
 2368UDC     C926046  10.040  13.683  19.013  0.3199  0.7337  0.4521
 2368UDC    C1026047   9.936  13.662  18.911  1.3364  1.0416  1.3690
 2368UDC    C1126048   9.888  13.780  18.832  0.7135 -0.3185  0.6566
 2369UDC     C126049  15.027  18.824  19.119 -0.1418  0.1441 -0.3839
 2369UDC     C226050  15.040  18.779  19.265  0.4685  0.2361  0.3836
 2369UDC     C326051  15.060  18.625  19.290 -1.0747 -0.8233 -0.6982
 2369UDC     C426052  14.932  18.545  19.262  0.0481  0.7117 -1.0834
 2369UDC     C526053  14.793  18.595  19.311 -1.0107 -0.4711  0.3636
 2369UDC     C626054  14.679  18.493  19.319  1.6374  0.2861  0.0102
 2369UDC     C726055  14.560  18.510  19.412  0.2845 -1.7822  0.5846
 2369UDC     C826056  14.507  18.372  19.462 -0.9418  0.6627  0.8163
 2369UDC     C926057  14.396  18.410  19.563 -0.8007 -0.3277  0.5276
 2369UDC    C1026058  14.272  18.474  19.503 -0.3120  0.3441 -0.0324
 2369UDC    C1126059  14.188  18.541  19.617  0.5816 -1.2032  0.4859
 2370UDC     C126060   8.917  14.060   9.196  0.0031 -0.6517  0.0855
 2370UDC     C226061   8.819  13.955   9.234 -0.9565 -0.4094  0.5080
 2370UDC     C326062   8.808  13.948   9.391  0.0007  0.2425 -0.0895
 2370UDC     C426063   8.714  13.851   9.463  0.4108  0.7441  0.4317
 2370UDC     C526064   8.746  13.699   9.439 -0.0780 -1.1998 -0.1884
 2370UDC     C626065   8.633  13.623   9.493  1.2418 -0.2769 -0.9176
 2370UDC     C726066   8.655  13.519   9.601  0.5206  0.1885 -0.3907
 2370UDC     C826067   8.532  13.529   9.695  0.1280  0.3498 -0.8833
 2370UDC     C926068   8.555  13.438   9.820 -0.9203  0.2032  0.2858
 2370UDC    C1026069   8.489  13.481   9.947 -0.3330  1.0034  0.2360
 2370UDC    C1126070   8.510  13.627   9.969  1.1953  0.6389 -0.3861
 2371UDC     C126071  19.856  15.231  18.568  0.8928 -1.3436 -0.4649
 2371UDC     C226072  19.709  15.274  18.603 -0.2457  0.4967 -1.0660
 2371UDC     C326073  19.600  15.189  18.528  0.0266 -0.5442  0.2829
 2371UDC     C426074  19.500  15.125  18.632  0.3723 -0.9577  0.2782
 2371UDC     C526075  19.449  15.240  18.724  0.0266  0.2992 -0.1910
 2371UDC     C626076  19.331  15.210  18.820  0.5557  1.1914 -0.8859
 2371UDC     C726077  19.258  15.082  18.790  1.1262  0.8132  0.2759
 2371UDC     C826078  19.129  15.069  18.873  0.5586 -1.7759  1.1263
 2371UDC     C926079  19.026  14.982  18.802  0.4487  1.3167 -0.0638
 2371UDC    C1026080  18.921  14.919  18.911  0.1528  0.2481  1.1306
 2371UDC    C1126081  18.796  14.855  18.848  0.0131 -0.0477  0.4733
 2372UDC     C126082   5.387   0.628  14.222  0.1368 -0.2911 -0.7653
 2372UDC     C226083   5.296   0.546  14.311 -0.5469  0.4306 -0.2796
 2372UDC     C326084   5.148   0.550  14.265  0.2862  0.0710  0.0430
 2372UDC     C426085   5.103   0.448  14.157 -0.7206  0.1272  0.1101
 2372UDC     C526086   4.961   0.465  14.122  0.0882 -0.6475 -0.5273
 2372UDC     C626087   4.884   0.341  14.084 -0.5856 -0.9790  0.3903
 2372UDC     C726088   4.882   0.251  14.203 -0.0498 -0.0420  0.4149
 2372UDC     C826089   4.794   0.133  14.172 -0.2237 -0.7590 -0.6393
 2372UDC     C926090   4.657   0.170  14.113  0.4691  0.2503  0.2947
 2372UDC    C1026091   4.582   0.246  14.213  0.7027 -0.3644 -0.7208
 2372UDC    C1126092   4.549   0.399  14.205 -0.6738 -0.4272 -0.4540
 2373UDC     C126093  16.953  14.210  17.368  0.4560 -0.2671 -0.2480
 2373UDC     C226094  16.906  14.294  17.244 -1.1451 -1.2761 -0.4870
 2373UDC     C326095  17.002  14.250  17.136 -0.1411  1.2119 -0.7072
 2373UDC     C426096  17.077  14.127  17.179  0.4877  0.4421  0.8946
 2373UDC     C526097  17.173  14.063  17.076 -0.3098  0.6622  0.7660
 2373UDC     C626098  17.317  14.105  17.054  0.7555 -0.1901 -0.6030
 2373UDC     C726099  17.354  14.081  16.909 -0.8117  0.2884  0.9979
 2373UDC     C826100  17.483  14.148  16.858 -0.1442 -0.1087  0.0726
 2373UDC     C926101  17.469  14.240  16.739  0.2696 -0.5843  0.2011
 2373UDC    C1026102  17.580  14.287  16.642  0.3183  1.0116 -0.6803
 2373UDC    C1126103  17.509  14.397  16.553 -1.3698  0.0983  0.1769
 2374UDC     C126104  11.362   9.794   6.016 -1.2114 -0.0311  0.2040
 2374UDC     C226105  11.454   9.674   6.016  0.6296  0.0630  0.2029
 2374UDC     C326106  11.398   9.548   6.090  0.1966  0.4029 -0.6426
 2374UDC     C426107  11.490   9.428   6.123 -0.7307 -1.6308  0.6820
 2374UDC     C526108  11.400   9.328   6.197 -0.8142  0.6116  0.8977
 2374UDC     C626109  11.476   9.194   6.182 -0.5087 -0.6605 -1.4266
 2374UDC     C726110  11.440   9.090   6.290 -0.4069 -0.1011 -0.9861
 2374UDC     C826111  11.521   8.963   6.304  0.1039  0.4500  0.3915
 2374UDC     C926112  11.473   8.865   6.419 -0.6045 -0.0979  1.3232
 2374UDC    C1026113  11.584   8.762   6.452 -1.0303  0.5689  0.1045
 2374UDC    C1126114  11.636   8.673   6.342  0.9611  0.0833  0.0265
 2375UDC     C126115  12.745   3.436  15.442 -1.2050 -0.2454 -0.3550
 2375UDC     C226116  12.799   3.434  15.294  0.2869  0.0007  0.6484
 2375UDC     C326117  12.876   3.552  15.259  0.4505 -0.4995  0.1078
 2375UDC     C426118  12.950   3.535  15.127 -0.4107  0.2571  0.2363
 2375UDC     C526119  13.062   3.641  15.090  0.8139 -0.0456 -0.6167
 2375UDC     C626120  13.143   3.614  14.965 -0.2930  0.3124 -0.1292
 2375UDC     C726121  13.287   3.669  14.982 -0.0828  0.4943  0.6370
 2375UDC     C826122  13.258   3.823  14.976  0.4496  0.4518  1.3119
 2375UDC     C926123  13.382   3.902  15.025 -0.1584  0.3315 -0.1117
 2375UDC    C1026124  13.497   3.893  14.914  0.8144  0.0985  0.2131
 2375UDC    C1126125  13.617   3.980  14.968  0.6517 -0.0838  0.8567
 2376UDC     C126126   0.598  11.910   0.533  0.2025  0.6440 -1.5114
 2376UDC     C226127   0.550  11.982   0.666 -0.3346  0.1086  0.2597
 2376UDC     C326128   0.525  11.891   0.785  1.6650  0.2349  1.1718
 2376UDC     C426129   0.652  11.846   0.858 -0.2291 -0.0401 -0.2608
 2376UDC     C526130   0.729  11.954   0.939 -0.8631  0.1841  0.5909
 2376UDC     C626131   0.857  11.929   1.029  0.2286 -0.1628 -0.0731
 2376UDC     C726132   0.848  11.988   1.175  0.0111  0.6614  0.6604
 2376UDC     C826133   0.957  11.914   1.250 -1.6521  0.2735  0.2982
 2376UDC     C926134   0.912  11.771   1.276  0.3865  0.8899  0.0754
 2376UDC    C1026135   0.767  11.778   1.329  0.7283  0.3635  0.3658
 2376UDC    C1126136   0.712  11.640   1.360  0.3771  0.1987 -0.1772
 2377UDC     C126137   9.578   3.512   8.518  0.0834 -0.0295  1.1516
 2377UDC     C226138   9.600   3.642   8.600  0.1712  0.1879 -0.5438
 2377UDC     C326139   9.468   3.716   8.638 -1.4359  0.1972 -0.3805
 2377UDC     C426140   9.488   3.826   8.739 -1.3768 -0.2497 -0.6442
 2377UDC     C526141   9.563   3.950   8.689 -0.6825 -0.5920 -0.4963
 2377UDC     C626142   9.640   4.023   8.801 -0.7764 -0.2103  1.4370
 2377UDC     C726143   9.754   4.116   8.750  0.2802  0.5946 -0.5401
 2377UDC     C826144   9.870   4.174   8.831 -0.7124 -0.0647  0.0522
 2377UDC     C926145   9.979   4.234   8.736  0.0860  0.0041 -0.4297
 2377UDC    C1026146   9.918   4.350   8.647  0.4218 -0.4975 -0.5111
 2377UDC    C1126147   9.868   4.483   8.727  0.1572  1.6000 -0.1590
 2378UDC     C126148  12.240  16.660  15.219 -0.1175  0.3769  0.6482
 2378UDC     C226149  12.321  16.689  15.095  0.0529  0.5762  0.6977
 2378UDC     C326150  12.289  16.602  14.973 -0.4105  0.6336 -0.9662
 2378UDC     C426151  12.402  16.574  14.866 -0.2407  0.3297  0.1043
 2378UDC     C526152  12.540  16.541  14.926 -1.0392 -0.5291  0.4328
 2378UDC     C626153  12.644  16.512  14.822 -0.4810  0.5607  0.5195
 2378UDC     C726154  12.779  16.476  14.884 -0.3038  0.1035 -0.1768
 2378UDC     C826155  12.893  16.430  14.799  0.5711 -0.5811 -0.2099
 2378UDC     C926156  13.014  16.395  14.889  0.1980  0.5444 -0.8947
 2378UDC    C1026157  13.131  16.322  14.814  0.0207 -0.0413 -0.6651
 2378UDC    C1126158  13.080  16.197  14.746 -0.2666  1.3016 -0.3177
 2379UDC     C126159  16.273  18.932  13.586 -0.1962  0.6449  1.0126
 2379UDC     C226160  16.390  18.990  13.670 -0.5915 -1.0849  1.2685
 2379UDC     C326161  16.382  19.104  13.788 -0.3632  0.8883  0.2765
 2379UDC     C426162  16.487  19.216  13.781  0.4416 -0.0406 -0.3716
 2379UDC     C526163  16.631  19.162  13.781  0.0487 -0.1629 -0.5439
 2379UDC     C626164  16.741  19.252  13.719 -0.1339  0.6594 -0.6334
 2379UDC     C726165  16.883  19.199  13.757 -0.6511  0.6101 -0.3053
 2379UDC     C826166  16.999  19.270  13.684  0.3020  0.0806 -0.2419
 2379UDC     C926167  17.066  19.370  13.777  0.4481  0.5578 -0.2055
 2379UDC    C1026168  17.091  19.508  13.710 -0.5327  0.7611 -0.3302
 2379UDC    C1126169  17.180  19.601  13.796  0.1177 -0.4242 -0.1411
 2380UDC     C126170  12.994  17.274   4.510 -0.1011  0.0956  0.0112
 2380UDC     C226171  13.085  17.364   4.609  0.4302 -0.1609  0.3717
 2380UDC     C326172  13.069  17.517   4.592 -1.1395  0.6394  0.7907
 2380UDC     C426173  13.136  17.590   4.704 -0.5769 -0.0909  0.5532
 2380UDC     C526174  13.161  17.742   4.677 -0.8841 -0.3343  1.1725
 2380UDC     C626175  13.205  17.824   4.799 -0.5054 -0.1606 -0.6713
 2380UDC     C726176  13.327  17.760   4.867  0.1870  0.0816 -1.3712
 2380UDC     C826177  13.374  17.812   5.011  0.3772  0.6191 -0.5633
 2380UDC     C926178  13.330  17.957   5.033 -0.5259  0.4225 -0.0587
 2380UDC    C1026179  13.201  17.998   5.109 -0.2737  0.2377 -0.2620
 2380UDC    C1126180  13.222  18.129   5.196 -0.9627 -0.0646  0.0133
 2381UDC     C126181  12.640   9.676   6.405 -0.9269  0.1215 -0.6416
 2381UDC     C226182  12.547   9.689   6.529  0.1656 -0.3471  0.2953
 2381UDC     C326183  12.400   9.729   6.507 -0.5376  0.9550  0.9458
 2381UDC     C426184  12.330   9.633   6.409 -0.2270 -0.6602  0.2589
 2381UDC     C526185  12.186   9.681   6.395  1.2727 -0.1546  0.5312
 2381UDC     C626186  12.120   9.741   6.524 -0.5626  0.2988  0.4153
 2381UDC     C726187  11.975   9.793   6.517 -0.1615  0.2496 -0.1705
 2381UDC     C826188  11.964   9.876   6.652 -0.6396  0.6556 -0.7205
 2381UDC     C926189  11.962   9.787   6.768  0.1367  0.8309  0.2816
 2381UDC    C1026190  12.033   9.822   6.902 -0.2313  0.2932  0.6632
 2381UDC    C1126191  11.944   9.930   6.969  1.0295 -0.5049  0.2760
 2382UDC     C126192  14.067   9.952   1.325 -0.2485  0.0964 -0.7110
 2382UDC     C226193  14.186   9.974   1.231  1.1517  1.3972  0.8434
 2382UDC     C326194  14.298   9.866   1.259 -0.5159 -0.5628 -1.5372
 2382UDC     C426195  14.366   9.852   1.397  0.0150  0.3083  0.3180
 2382UDC     C526196  14.485   9.763   1.408  0.7924  0.7038  1.1312
 2382UDC     C626197  14.533   9.775   1.556 -0.6883  0.1746  0.4880
 2382UDC     C726198  14.671   9.714   1.578 -0.5074  0.2672  0.2018
 2382UDC     C826199  14.698   9.571   1.532 -0.5438 -0.6313  0.1367
 2382UDC     C926200  14.721   9.498   1.662  0.2660  0.2579  0.2365
 2382UDC    C1026201  14.609   9.466   1.766  0.2309  0.2865  1.2562
 2382UDC    C1126202  14.688   9.438   1.899 -0.1550  0.1887  0.0334
 2383UDC     C126203   9.415   8.850  13.177 -0.3908 -0.5877 -1.4154
 2383UDC     C226204   9.463   8.983  13.229 -0.1598  0.3368 -1.1468
 2383UDC     C326205   9.428   9.108  13.139 -0.4771  0.6559 -0.0668
 2383UDC     C426206   9.496   9.103  13.006 -0.1697 -0.1318 -0.0357
 2383UDC     C526207   9.645   9.108  13.013 -1.3961  0.5896 -0.5449
 2383UDC     C626208   9.719   9.124  12.882  0.1338  0.0568  0.0118
 2383UDC     C726209   9.750   8.980  12.857  0.7759  0.4522  0.0643
 2383UDC     C826210   9.843   8.988  12.738 -0.2396  0.7182 -0.1552
 2383UDC     C926211   9.933   8.871  12.694 -0.4627 -0.6570  0.1486
 2383UDC    C1026212   9.862   8.766  12.602  0.1471  0.3478  0.4894
 2383UDC    C1126213   9.946   8.657  12.527  0.0078  0.5397  0.1894
 2384UDC     C126214  11.340   7.259   2.313 -0.5269 -0.1374  0.3759
 2384UDC     C226215  11.460   7.355   2.292  1.1827  0.7421 -0.2148
 2384UDC     C326216  11.429   7.483   2.221 -0.2262  1.4617 -0.4028
 2384UDC     C426217  11.556   7.559   2.184 -0.1555 -0.6769 -0.5273
 2384UDC     C526218  11.640   7.596   2.308 -0.2627 -0.3959 -0.2688
 2384UDC     C626219  11.723   7.728   2.319  0.4465 -1.5252  0.1371
 2384UDC     C726220  11.832   7.729   2.214  0.1455  0.1860 -0.2941
 2384UDC     C826221  11.964   7.806   2.252  0.3117 -0.2955  0.7937
 2384UDC     C926222  11.944   7.962   2.258 -0.4598 -0.3382 -1.1915
 2384UDC    C1026223  11.879   8.026   2.380 -0.4353 -0.3758  0.3045
 2384UDC    C1126224  11.822   8.169   2.357 -0.2929  0.1006  0.4917
 2385UDC     C126225   2.484   0.492   2.774  0.7055  0.4928  1.0821
 2385UDC     C226226   2.396   0.565   2.671  0.1590 -0.0070 -0.5917
 2385UDC     C326227   2.432   0.710   2.674  0.2212 -1.1215  0.5550
 2385UDC     C426228   2.390   0.771   2.807 -0.7977 -0.1571 -0.1309
 2385UDC     C526229   2.470   0.902   2.814 -0.4460 -0.2271 -0.3237
 2385UDC     C626230   2.436   0.978   2.941  0.2647 -0.3783 -0.2385
 2385UDC     C726231   2.552   1.053   3.016  0.0315 -0.2820 -0.7357
 2385UDC     C826232   2.488   1.126   3.137  0.0701  0.4091  1.3732
 2385UDC     C926233   2.568   1.124   3.269  0.4542  0.2686  0.8327
 2385UDC    C1026234   2.587   0.978   3.322 -0.3729  0.3070 -0.4686
 2385UDC    C1126235   2.447   0.913   3.350 -0.9080  0.2074  0.1599
 2386UDC     C126236  12.042   4.466   2.465 -0.2588  0.2928 -0.6955
 2386UDC     C226237  11.925   4.441   2.565  0.1813  0.6612 -0.1680
 2386UDC     C326238  11.966   4.479   2.717  0.6321  0.2295  0.5795
 2386UDC     C426239  11.844   4.477   2.808 -1.3673 -1.0241  0.0591
 2386UDC     C526240  11.741   4.379   2.760  0.7535 -1.0488 -0.1608
 2386UDC     C626241  11.665   4.330   2.887 -0.9109 -0.8403 -1.5463
 2386UDC     C726242  11.518   4.387   2.889 -1.8787  0.5248 -0.0991
 2386UDC     C826243  11.502   4.522   2.829  0.9935 -0.3983 -0.0215
 2386UDC     C926244  11.534   4.645   2.911 -0.2129 -1.0915 -0.2324
 2386UDC    C1026245  11.466   4.759   2.830  0.1772  0.0207 -1.3913
 2386UDC    C1126246  11.439   4.731   2.686 -0.5125  0.7495  0.6051
 2387UDC     C126247   7.325  14.725  10.190 -0.4672 -0.3943  0.8006
 2387UDC     C226248   7.337  14.579  10.134 -0.3262  0.1215  0.3495
 2387UDC     C326249   7.457  14.535  10.052 -0.7138 -0.0906 -0.3713
 2387UDC     C426250   7.455  14.409   9.964  0.1236 -0.2664 -0.3020
 2387UDC     C526251   7.570  14.396   9.869 -0.4451 -1.2952 -0.7923
 2387UDC     C626252   7.702  14.402   9.950 -0.6761  0.0288 -0.3548
 2387UDC     C726253   7.820  14.433   9.855 -0.2725  0.6685  0.7186
 2387UDC     C826254   7.793  14.534   9.739 -0.0467 -0.3803  0.1506
 2387UDC     C926255   7.903  14.563   9.628 -0.0108  0.9096 -1.3850
 2387UDC    C1026256   7.832  14.599   9.500  0.5892 -0.4803 -0.0730
 2387UDC    C1126257   7.944  14.656   9.420 -0.8705  0.3903 -0.3249
 2388UDC     C126258   7.449   8.480  12.106  1.4322 -0.5929 -0.3494
 2388UDC     C226259   7.311   8.471  12.033 -0.3877  1.1370 -1.0936
 2388UDC     C326260   7.262   8.602  11.968 -0.4239 -0.3053  0.3302
 2388UDC     C426261   7.375   8.662  11.895 -0.6245  0.4976  0.0583
 2388UDC     C526262   7.334   8.725  11.761 -0.4930 -0.5597 -1.1093
 2388UDC     C626263   7.300   8.614  11.663  0.0934 -0.0381  0.5881
 2388UDC     C726264   7.291   8.660  11.515 -0.2087 -0.6692  0.5029
 2388UDC     C826265   7.215   8.794  11.495 -1.6477  0.7796 -0.2671
 2388UDC     C926266   7.201   8.832  11.350 -0.4808 -0.6292 -0.1274
 2388UDC    C1026267   7.096   8.943  11.337 -0.9283  1.1960 -0.7632
 2388UDC    C1126268   6.953   8.885  11.294 -0.7371 -0.0998 -1.0581
 2389UDC     C126269  11.121  19.128   4.481  0.6678 -0.0276  0.5938
 2389UDC     C226270  11.238  19.229   4.462  0.6688  0.1983  0.1682
 2389UDC     C326271  11.198  19.360   4.393  0.2015  0.0815 -0.1274
 2389UDC     C426272  11.137  19.358   4.255 -0.3603 -0.3268  0.6091
 2389UDC     C526273  11.047  19.479   4.231  1.1731  0.0090  0.8625
 2389UDC     C626274  11.115  19.615   4.222 -0.2172 -1.0680  0.3030
 2389UDC     C726275  11.203  19.613   4.091 -0.0321 -0.3415  0.3022
 2389UDC     C826276  11.187  19.738   4.009  0.7483  0.0905  1.2109
 2389UDC     C926277  11.183  19.738   3.858 -0.4758  0.7995 -0.2107
 2389UDC    C1026278  11.043  19.694   3.807 -0.2017  0.1668 -0.5601
 2389UDC    C1126279  11.018  19.547   3.774  0.6679  0.1693  0.2065
 2390UDC     C126280  13.663   8.829   7.730 -0.5664 -0.5112  0.2205
 2390UDC     C226281  13.735   8.890   7.600  0.6380  0.4907  0.4101
 2390UDC     C326282  13.745   9.039   7.632  0.3857 -0.3158  0.4592
 2390UDC     C426283  13.799   9.133   7.515  0.0690  0.8288  0.2543
 2390UDC     C526284  13.736   9.115   7.380 -0.3207 -0.4125 -0.5195
 2390UDC     C626285  13.824   9.190   7.283 -0.1977 -0.7772 -0.7228
 2390UDC     C726286  13.804   9.348   7.301 -0.6602  1.9865 -0.2257
 2390UDC     C826287  13.881   9.412   7.184  0.1367  0.1488  0.4213
 2390UDC     C926288  13.817   9.402   7.049 -0.6480  0.0582  0.0681
 2390UDC    C1026289  13.900   9.450   6.936 -0.3466  0.5174 -0.3420
 2390UDC    C1126290  14.026   9.360   6.932 -0.2720 -0.1837 -0.6177
 2391UDC     C126291   8.688  11.682   8.820 -0.2161 -0.1406  0.8580
 2391UDC     C226292   8.589  11.737   8.922 -0.4936 -0.4508  0.7674
 2391UDC     C326293   8.459  11.776   8.843  0.8513  0.1395  0.3550
 2391UDC     C426294   8.445  11.916   8.774  0.4373  0.5291 -1.0685
 2391UDC     C526295   8.558  12.017   8.821  0.3200  0.0373 -0.4651
 2391UDC     C626296   8.559  12.162   8.756  0.2623 -0.2463  0.7863
 2391UDC     C726297   8.534  12.144   8.609 -1.4384 -1.1461 -0.1699
 2391UDC     C826298   8.662  12.102   8.532 -0.3268  1.0992  0.4769
 2391UDC     C926299   8.629  11.988   8.426  0.8335 -1.4780 -0.6844
 2391UDC    C1026300   8.732  11.970   8.313  0.5449  0.3637  0.8226
 2391UDC    C1126301   8.861  11.923   8.380 -0.0572  0.4271 -0.5866
 2392UDC     C126302   5.542   1.233   6.247  0.6079  0.1210  0.3692
 2392UDC     C226303   5.411   1.236   6.329  0.6427 -0.2449 -0.3004
 2392UDC     C326304   5.449   1.156   6.462  0.1611 -1.8009  0.0930
 2392UDC     C426305   5.330   1.133   6.563  0.0722 -0.5843  0.5787
 2392UDC     C526306   5.338   1.031   6.676 -0.7783  0.2069  0.0581
 2392UDC     C626307   5.307   0.883   6.627 -0.6659 -0.2725 -0.2731
 2392UDC     C726308   5.431   0.804   6.576  1.0308  0.1635  0.6613
 2392UDC     C826309   5.407   0.659   6.523  1.7785 -0.3141  0.0957
 2392UDC     C926310   5.524   0.594   6.461  0.0010  0.3919 -0.0048
 2392UDC    C1026311   5.671   0.591   6.525  0.2936 -0.4192  0.6525
 2392UDC    C1126312   5.769   0.498   6.464 -0.8209  0.4266  0.8825
 2393UDC     C126313  15.610  19.067  15.252 -0.6645 -0.4046  0.1806
 2393UDC     C226314  15.664  19.144  15.121 -0.8516  0.5022 -0.8097
 2393UDC     C326315  15.578  19.264  15.071 -0.6211 -0.2943 -0.1898
 2393UDC     C426316  15.655  19.329  14.963 -0.2119  0.0198  0.0024
 2393UDC     C526317  15.553  19.429  14.905  0.4008 -0.2626 -0.0239
 2393UDC     C626318  15.413  19.373  14.888 -0.7676 -0.7687  0.2227
 2393UDC     C726319  15.370  19.321  14.742 -0.1286 -0.4452 -0.5974
 2393UDC     C826320  15.342  19.418  14.623 -0.7295 -0.4674  0.2175
 2393UDC     C926321  15.238  19.390  14.522  1.2760  0.3214  1.1552
 2393UDC    C1026322  15.107  19.326  14.578 -0.3306  0.3260 -0.5032
 2393UDC    C1126323  14.995  19.404  14.650 -1.2511 -0.6034 -0.7438
 2394UDC     C126324  11.326   0.882   3.947  0.2987  1.0191  0.3112
 2394UDC     C226325  11.430   0.961   4.026  0.0304  0.3192 -0.2579
 2394UDC     C326326  11.577   0.949   3.978  0.3018  1.3391  0.4816
 2394UDC     C426327  11.692   1.021   4.041 -0.3803 -1.0679  0.2070
 2394UDC     C526328  11.833   0.987   3.995 -0.9650 -0.6861  0.8295
 2394UDC     C626329  11.926   1.041   4.109  0.1764 -0.0190 -0.0066
 2394UDC     C726330  12.075   1.069   4.078  0.3502  0.8147 -0.1326
 2394UDC     C826331  12.172   0.948   4.086  0.1880 -0.0571 -0.0231
 2394UDC     C926332  12.194   0.855   3.961 -0.3563 -0.5691  0.3063
 2394UDC    C1026333  12.259   0.922   3.840 -0.7989  0.0268  0.2252
 2394UDC    C1126334  12.417   0.919   3.850  0.4435 -0.1739  1.1166
 2395UDC     C126335   4.881   2.757  15.101 -0.3456  0.9091 -0.1486
 2395UDC     C226336   4.895   2.876  15.010  0.0607 -0.2526  0.4918
 2395UDC     C326337   4.809   2.859  14.881 -0.2002  0.0229 -0.5250
 2395UDC     C426338   4.858   2.741  14.798  0.5770  0.7068 -0.0147
 2395UDC     C526339   4.960   2.786  14.690  0.1213 -0.2550 -0.1666
 2395UDC     C626340   4.995   2.675  14.582  0.0693 -0.4917  0.0220
 2395UDC     C726341   5.104   2.711  14.466  0.8433 -0.1608 -0.0957
 2395UDC     C826342   5.120   2.583  14.378 -0.3788  0.0379 -0.7030
 2395UDC     C926343   5.250   2.589  14.291  0.3811 -0.3292  1.0559
 2395UDC    C1026344   5.268   2.740  14.242 -0.8178  0.7473  0.0357
 2395UDC    C1126345   5.408   2.767  14.173 -0.3262  0.1419  0.7551
 2396UDC     C126346   0.028   9.507   5.991  1.2048  0.2233  1.4960
 2396UDC     C226347   0.117   9.478   5.868 -0.6374 -0.2423 -0.5053
 2396UDC     C326348   0.177   9.342   5.865 -0.6492 -0.1803 -0.1988
 2396UDC     C426349   0.254   9.330   5.995 -0.2951 -0.1632  0.5647
 2396UDC     C526350   0.199   9.233   6.092 -0.0736  1.4526  0.6694
 2396UDC     C626351   0.271   9.209   6.222 -0.1350 -0.5268  0.0202
 2396UDC     C726352   0.351   9.078   6.212 -0.6593 -0.3911  0.1571
 2396UDC     C826353   0.337   8.996   6.350  0.4947 -1.5979  0.9716
 2396UDC     C926354   0.371   8.844   6.316 -0.3942  1.2736 -0.1268
 2396UDC    C1026355   0.265   8.761   6.230 -0.9011 -0.4701  0.8397
 2396UDC    C1126356   0.268   8.608   6.227  0.2582 -0.8329 -1.4431
 2397UDC     C126357  16.558   2.421  15.416 -0.2704  0.2645 -0.1008
 2397UDC     C226358  16.466   2.315  15.355 -1.2645 -0.7557  0.3973
 2397UDC     C326359  16.497   2.235  15.219  0.6465  0.6444 -0.6569
 2397UDC     C426360  16.500   2.081  15.223  0.3339 -0.3798  0.3157
 2397UDC     C526361  16.544   2.020  15.094 -1.0694  0.5018 -0.1730
 2397UDC     C626362  16.454   2.044  14.967  0.1448 -0.0025 -0.2447
 2397UDC     C726363  16.496   2.019  14.821 -0.3264 -0.2272  0.2737
 2397UDC     C826364  16.374   2.032  14.731  0.4037 -0.2169  0.0588
 2397UDC     C926365  16.351   1.906  14.650 -0.5883 -0.1767  0.1873
 2397UDC    C1026366  16.220   1.906  14.568 -0.2881 -0.4750  0.7730
 2397UDC    C1126367  16.088   1.926  14.659  0.1650 -0.3766  0.3975
 2398UDC     C126368   6.430  15.030   6.266 -0.2053  0.1209  0.6899
 2398UDC     C226369   6.391  14.887   6.222 -0.1364 -0.5367 -0.0219
 2398UDC     C326370   6.484  14.767   6.260  0.5347  0.0861  0.3528
 2398UDC     C426371   6.425  14.629   6.213 -1.0728 -0.6355  0.7744
 2398UDC     C526372   6.531  14.512   6.224  0.2321 -0.8797 -0.1245
 2398UDC     C626373   6.622  14.532   6.350 -0.1806  0.5141  0.5020
 2398UDC     C726374   6.758  14.452   6.368  0.3238 -0.5128  0.1332
 2398UDC     C826375   6.874  14.536   6.312  0.6247 -0.3373  0.5582
 2398UDC     C926376   6.929  14.666   6.385  1.0878 -1.2313  0.1831
 2398UDC    C1026377   6.985  14.632   6.519  0.2029 -0.0515  0.1964
 2398UDC    C1126378   7.076  14.513   6.511 -0.3453  1.0887  0.2388
 2399UDC     C126379  13.966   5.572  16.539 -0.4204  1.0643 -0.8315
 2399UDC     C226380  14.004   5.526  16.397 -0.1231  0.8740  0.5118
 2399UDC     C326381  14.151   5.518  16.371  0.4153  0.1604  0.0981
 2399UDC     C426382  14.173   5.483  16.219 -0.0211 -0.6937  0.1671
 2399UDC     C526383  14.313   5.439  16.170 -0.3847  0.1770  1.2514
 2399UDC     C626384  14.375   5.347  16.274  1.3006  0.3230  0.0726
 2399UDC     C726385  14.519   5.307  16.256 -0.5031  0.4297 -0.4596
 2399UDC     C826386  14.565   5.259  16.121 -0.1487 -0.0486  1.0125
 2399UDC     C926387  14.488   5.137  16.057 -0.3782 -0.3607  0.3004
 2399UDC    C1026388  14.506   5.095  15.906  0.7896  0.3134  0.4756
 2399UDC    C1126389  14.427   4.970  15.869 -0.0762 -0.2145  0.4125
 2400UDC     C126390  18.272   8.856   9.391 -0.9448  0.0330 -0.6270
 2400UDC     C226391  18.194   8.729   9.418  0.8633  0.1991 -0.4570
 2400UDC     C326392  18.260   8.591   9.387  0.9069  0.7472 -0.5485
 2400UDC     C426393  18.361   8.530   9.491  0.0222  0.0021  0.3515
 2400UDC     C526394  18.399   8.386   9.452 -0.4438 -0.3673  1.7532
 2400UDC     C626395  18.488   8.370   9.321 -0.1245  0.8194  0.4910
 2400UDC     C726396  18.437   8.362   9.179 -0.5691  0.3423  0.1767
 2400UDC     C826397  18.528   8.262   9.102 -0.0428  0.0038  0.2493
 2400UDC     C926398  18.508   8.102   9.117 -0.7263  0.1922  0.9006
 2400UDC    C1026399  18.407   8.044   9.008 -0.1065  0.5299  0.1321
 2400UDC    C1126400  18.399   7.887   9.030 -0.2079 -0.5674  0.4029
 2401UDC     C126401   9.739  14.723  15.939 -0.8005 -0.0599 -0.1745
 2401UDC     C226402   9.808  14.837  16.013 -0.6533 -0.3950 -0.0242
 2401UDC     C326403   9.888  14.790  16.134 -0.5018  0.1633  0.2262
 2401UDC     C426404  10.024  14.865  16.151 -0.9152 -0.7906  0.4167
 2401UDC     C526405  10.091  14.891  16.285 -0.5204 -0.0294 -0.1826
 2401UDC     C626406  10.234  14.953  16.292 -0.2152 -0.5658 -0.1308
 2401UDC     C726407  10.293  14.953  16.434 -0.3468 -0.3828 -0.2059
 2401UDC     C826408  10.196  15.011  16.544 -1.1912 -0.5528 -1.0127
 2401UDC     C926409  10.275  15.047  16.672  0.2374 -0.4854  0.2407
 2401UDC    C1026410  10.176  15.102  16.777  0.2840 -0.1666  0.5358
 2401UDC    C1126411  10.060  15.176  16.714  0.3168  0.1786 -0.1818
 2402UDC     C126412   0.335   3.018  17.113 -1.3730 -0.0637 -0.0314
 2402UDC     C226413   0.414   2.885  17.099  0.5546  0.9765 -0.8706
 2402UDC     C326414   0.552   2.885  17.172  0.7550  0.0826  0.2599
 2402UDC     C426415   0.548   2.857  17.328 -0.1783 -0.1459  0.4026
 2402UDC     C526416   0.491   2.717  17.372  0.1572 -1.0746 -1.3025
 2402UDC     C626417   0.531   2.682  17.513  0.5104  0.1458  0.1366
 2402UDC     C726418   0.537   2.533  17.545 -0.0317  1.0454  0.1204
 2402UDC     C826419   0.400   2.460  17.528 -0.5776  0.1636  0.3755
 2402UDC     C926420   0.305   2.499  17.645 -0.1934 -0.0134 -0.0393
 2402UDC    C1026421   0.171   2.430  17.655 -0.8115  0.1425 -0.5646
 2402UDC    C1126422   0.199   2.291  17.714  0.3100  1.5108 -1.0306
 2403UDC     C126423  14.301   7.521  17.897  0.8341 -0.5143 -0.0903
 2403UDC     C226424  14.393   7.567  17.784  0.5279 -1.4307 -0.7021
 2403UDC     C326425  14.367   7.720  17.759 -0.4157  0.0769  0.0409
 2403UDC     C426426  14.479   7.783  17.671 -0.9263 -0.6070  0.3161
 2403UDC     C526427  14.426   7.882  17.568  0.1541  0.0455 -0.2178
 2403UDC     C626428  14.537   7.962  17.504 -0.0088 -0.1168 -0.4592
 2403UDC     C726429  14.481   8.027  17.368 -0.5425 -0.6651 -0.8083
 2403UDC     C826430  14.477   7.925  17.252  0.0540 -0.3482  0.5258
 2403UDC     C926431  14.607   7.877  17.182  0.0417 -0.3325  0.4079
 2403UDC    C1026432  14.643   7.724  17.184  0.3194  0.7575 -0.7121
 2403UDC    C1126433  14.524   7.620  17.220 -0.5142  0.1563  0.2296
 2404UDC     C126434  14.571   4.401  13.434  0.6652 -1.1255  0.0065
 2404UDC     C226435  14.482   4.468  13.542  0.1301 -0.5304 -0.5425
 2404UDC     C326436  14.570   4.511  13.662  0.7618  0.8184  0.2200
 2404UDC     C426437  14.618   4.387  13.745  0.6948  0.4196  0.8558
 2404UDC     C526438  14.605   4.397  13.891 -0.7706 -0.8531 -0.1989
 2404UDC     C626439  14.649   4.259  13.947  0.6719 -0.0087 -0.1349
 2404UDC     C726440  14.556   4.141  13.905  0.4208 -0.9957  0.7933
 2404UDC     C826441  14.607   4.007  13.950  0.0235  0.4767 -0.1568
 2404UDC     C926442  14.510   3.888  13.936 -0.1699 -0.1986 -0.0964
 2404UDC    C1026443  14.562   3.778  13.839  0.0504  1.5528  0.0332
 2404UDC    C1126444  14.503   3.639  13.857  0.1620  0.4144  0.0531
 2405UDC     C126445  13.332  18.445  10.900 -0.2188 -0.0595  0.2347
 2405UDC     C226446  13.366  18.532  10.773  0.5760  0.5331 -0.6468
 2405UDC     C326447  13.284  18.655  10.722 -0.5734  0.7526  0.8892
 2405UDC     C426448  13.348  18.715  10.597 -0.9639  0.3516  0.2399
 2405UDC     C526449  13.381  18.623  10.480  0.4669 -0.4234  0.0852
 2405UDC     C626450  13.260  18.556  10.417  0.8246  0.4861  0.5163
 2405UDC     C726451  13.284  18.420  10.359  0.3458  0.4849 -0.3610
 2405UDC     C826452  13.424  18.382  10.314  0.0495 -0.1413  0.3825
 2405UDC     C926453  13.431  18.241  10.258 -1.1663 -0.0981  0.0702
 2405UDC    C1026454  13.562  18.179  10.212  1.2004  0.3025  0.1761
 2405UDC    C1126455  13.550  18.032  10.189 -0.2630  0.6284 -0.0254
 2406UDC     C126456  11.339  16.763  14.862  0.1985 -0.2368  0.4974
 2406UDC     C226457  11.408  16.888  14.887 -0.8309  1.2090  0.9001
 2406UDC     C326458  11.488  16.895  15.017 -0.5875 -0.1703 -0.8604
 2406UDC     C426459  11.570  17.027  15.047 -0.1359 -0.4837  0.8760
 2406UDC     C526460  11.655  17.082  14.936  0.7148 -0.3403  1.3527
 2406UDC     C626461  11.767  17.152  15.004  0.7773 -0.1084  0.1488
 2406UDC     C726462  11.871  17.060  15.059  0.3163  0.6806  1.5663
 2406UDC     C826463  11.956  17.128  15.161 -0.3465 -0.7557  0.5041
 2406UDC     C926464  12.079  17.045  15.199 -0.4801  0.4271  0.2894
 2406UDC    C1026465  12.100  17.022  15.349 -0.4412  1.1658 -0.9564
 2406UDC    C1126466  12.251  17.018  15.372  0.1846  0.7512 -0.3254
 2407UDC     C126467   1.832  17.214   3.418 -0.1749 -0.8104  0.0818
 2407UDC     C226468   1.698  17.188   3.483  0.5772 -0.2088 -0.2770
 2407UDC     C326469   1.686  17.278   3.611 -0.0763 -0.4217  0.5128
 2407UDC     C426470   1.552  17.255   3.688  0.2676  1.1500 -0.8690
 2407UDC     C526471   1.548  17.330   3.827 -0.1930 -0.5319 -0.1944
 2407UDC     C626472   1.410  17.360   3.895  0.5171 -1.5829  0.4237
 2407UDC     C726473   1.325  17.459   3.809  0.6329  0.1372 -1.2004
 2407UDC     C826474   1.179  17.452   3.875 -0.1342  0.1910 -0.7469
 2407UDC     C926475   1.081  17.522   3.796  0.8995 -0.1760 -1.2807
 2407UDC    C1026476   0.937  17.515   3.843  0.1068  0.6647 -0.2122
 2407UDC    C1126477   0.830  17.593   3.768 -0.6418  0.8190 -0.4901
 2408UDC     C126478  15.540  10.383   8.147  0.0757  0.1257 -0.0341
 2408UDC     C226479  15.463  10.302   8.249  0.1353 -0.2003  0.1596
 2408UDC     C326480  15.547  10.179   8.285  0.6238 -0.0270  0.1192
 2408UDC     C426481  15.467  10.052   8.335  0.0340  0.9390 -0.1054
 2408UDC     C526482  15.552   9.932   8.326  0.1045  0.0877  0.2136
 2408UDC     C626483  15.471   9.801   8.330 -0.0190 -0.1081  0.7786
 2408UDC     C726484  15.557   9.671   8.349  0.3757  0.0339  0.0228
 2408UDC     C826485  15.521   9.542   8.266 -0.0047  0.4239  0.5246
 2408UDC     C926486  15.369   9.523   8.258  0.1136  0.2827 -0.8267
 2408UDC    C1026487  15.321   9.378   8.242 -0.2192 -0.1438 -0.7316
 2408UDC    C1126488  15.184   9.382   8.183  0.3496  0.4061  0.9979
 2409UDC     C126489  18.059   4.333   1.971  0.1576 -0.0962  0.7608
 2409UDC     C226490  18.005   4.193   1.924  0.6620 -0.7005 -0.3299
 2409UDC     C326491  17.852   4.188   1.926 -1.6975 -0.2785 -0.2070
 2409UDC     C426492  17.785   4.271   1.806  0.7787  0.1089  0.0513
 2409UDC     C526493  17.662   4.348   1.865  0.4194  0.8064 -0.5775
 2409UDC     C626494  17.562   4.402   1.764  1.2340 -0.3495  0.5748
 2409UDC     C726495  17.606   4.477   1.636 -0.0818  0.4771 -0.3842
 2409UDC     C826496  17.483   4.503   1.552 -0.4628 -0.3398  0.3521
 2409UDC     C926497  17.460   4.611   1.436 -0.0626  0.3673 -0.0634
 2409UDC    C1026498  17.319   4.579   1.382 -0.6770 -0.4349  0.3247
 2409UDC    C1126499  17.292   4.477   1.275  0.7457  0.9676  0.3314
 2410UDC     C126500  16.143  11.743   5.442  0.5752 -0.5694  0.3537
 2410UDC     C226501  16.056  11.633   5.519 -0.5163 -0.5865  0.1918
 2410UDC     C326502  15.924  11.702   5.554  0.4097 -0.8216  0.9118
 2410UDC     C426503  15.804  11.676   5.451 -0.7785 -0.5118  0.0855
 2410UDC     C526504  15.662  11.722   5.483 -0.5618  0.2709 -0.0333
 2410UDC     C626505  15.652  11.707   5.631 -0.7929  0.0481  0.3902
 2410UDC     C726506  15.580  11.575   5.676  0.0849  0.8771  0.2265
 2410UDC     C826507  15.633  11.501   5.799 -1.0092 -0.6382  0.6006
 2410UDC     C926508  15.754  11.414   5.787 -0.4501  0.2016 -0.6977
 2410UDC    C1026509  15.829  11.338   5.898 -0.8739 -0.7382  0.2443
 2410UDC    C1126510  15.771  11.205   5.953 -1.1112 -0.0100  0.4639
 2411UDC     C126511  18.494   9.462  10.513 -0.0130  0.0240 -0.1803
 2411UDC     C226512  18.443   9.387  10.638 -0.2457  0.0272 -0.4311
 2411UDC     C326513  18.530   9.402  10.761  0.9056 -0.6408  0.1694
 2411UDC     C426514  18.488   9.314  10.870  0.6421 -0.8535 -1.2316
 2411UDC     C526515  18.565   9.332  10.998 -1.8770  0.6983  0.4345
 2411UDC     C626516  18.724   9.293  10.987 -0.2024 -0.1771  0.9121
 2411UDC     C726517  18.825   9.329  11.098  0.7058  0.7971  0.5570
 2411UDC     C826518  18.968   9.288  11.073 -0.4021 -0.3214  0.7606
 2411UDC     C926519  19.072   9.386  11.138 -0.0794  0.8171  0.8794
 2411UDC    C1026520  19.048   9.529  11.082 -0.3859  0.0117 -0.5140
 2411UDC    C1126521  19.153   9.628  11.146  0.6284  0.3901 -0.1392
 2412UDC     C126522  12.569   7.932   6.817  0.3250  0.5705 -0.0006
 2412UDC     C226523  12.497   7.864   6.701 -0.1677  0.1742 -0.1355
 2412UDC     C326524  12.588   7.884   6.579  0.9160  0.3938  0.4600
 2412UDC     C426525  12.499   7.845   6.457  0.2093  1.0275 -1.0860
 2412UDC     C526526  12.561   7.804   6.319  0.2564 -0.9006 -0.4244
 2412UDC     C626527  12.445   7.761   6.219  0.1769  1.0837 -0.9544
 2412UDC     C726528  12.471   7.707   6.078 -0.2718  0.2365  0.2952
 2412UDC     C826529  12.510   7.832   5.988 -0.2777  0.4181 -0.8216
 2412UDC     C926530  12.635   7.805   5.905  1.1416 -0.4964 -0.2207
 2412UDC    C1026531  12.684   7.924   5.837  0.4198 -1.3910  0.1189
 2412UDC    C1126532  12.825   7.923   5.782 -0.6853  0.4571 -0.0373
 2413UDC     C126533   4.148  10.377  18.697  0.2923 -0.5727  0.0159
 2413UDC     C226534   4.205  10.481  18.602  1.2815 -1.1125 -1.2104
 2413UDC     C326535   4.159  10.629  18.619 -0.8518  0.9265  0.0637
 2413UDC     C426536   4.253  10.714  18.536  0.4785 -0.1922  0.6665
 2413UDC     C526537   4.399  10.689  18.531 -0.8956  0.1239  0.7931
 2413UDC     C626538   4.460  10.734  18.396 -0.3122 -0.4797 -0.4886
 2413UDC     C726539   4.537  10.617  18.334  0.9125  0.3594 -0.2901
 2413UDC     C826540   4.535  10.612  18.176  1.1429  0.0625  0.3199
 2413UDC     C926541   4.462  10.485  18.124 -0.3371  0.2811  1.6814
 2413UDC    C1026542   4.308  10.476  18.109  0.1749  0.4840  0.7515
 2413UDC    C1126543   4.263  10.345  18.040  0.1181 -0.6505  0.0399
 2414UDC     C126544  16.099   8.999  19.481 -0.4577  0.2578  1.1872
 2414UDC     C226545  15.977   9.047  19.556  0.2126 -0.9898 -0.0130
 2414UDC     C326546  15.906   8.921  19.598  0.1038  0.5202  0.3542
 2414UDC     C426547  15.754   8.913  19.558 -1.1978  0.2910 -1.3500
 2414UDC     C526548  15.677   8.803  19.628 -0.9669  0.1275  0.1119
 2414UDC     C626549  15.534   8.762  19.595 -0.4665  0.0173  0.1198
 2414UDC     C726550  15.515   8.623  19.659  0.1892 -0.5696  1.0114
 2414UDC     C826551  15.385   8.585  19.615 -1.2918 -0.0129 -0.3659
 2414UDC     C926552  15.400   8.516  19.480 -0.6408 -0.6356 -0.3587
 2414UDC    C1026553  15.295   8.428  19.418  0.2272 -0.1971  0.1358
 2414UDC    C1126554  15.341   8.387  19.279  0.7815  0.3085  0.2791
 2415UDC     C126555  19.663  10.281   3.887  0.5452  0.5482  0.8187
 2415UDC     C226556  19.631  10.208   4.019 -0.2111  0.2367 -0.4286
 2415UDC     C326557  19.716  10.083   4.039  0.5701  0.4539  0.3833
 2415UDC     C426558  19.657  10.006   4.158 -1.1267  0.8613 -0.4361
 2415UDC     C526559  19.664  10.092   4.283  0.4873 -0.0853 -0.7239
 2415UDC     C626560  19.680  10.030   4.422 -1.1813  0.2971  0.4689
 2415UDC     C726561  19.588   9.915   4.460  0.5318 -0.0133 -1.2740
 2415UDC     C826562  19.583   9.875   4.606 -0.8338  0.7116 -1.2809
 2415UDC     C926563  19.696   9.800   4.673 -0.5666 -0.4993 -0.6408
 2415UDC    C1026564  19.754   9.872   4.795 -0.7319  1.1025 -0.5492
 2415UDC    C1126565  19.834   9.797   4.896  0.1789 -0.5282  0.4016
 2416UDC     C126566   3.372  11.088   3.571  0.3512  0.3099 -0.6047
 2416UDC     C226567   3.274  11.206   3.561 -0.3018 -0.5056  0.2067
 2416UDC     C326568   3.127  11.174   3.522 -0.7421  0.9854  0.3378
 2416UDC     C426569   3.073  11.064   3.604  0.6156 -0.5205 -0.4120
 2416UDC     C526570   2.937  10.997   3.596 -0.8736 -0.5227  0.8786
 2416UDC     C626571   2.832  11.045   3.693 -0.5780  0.0372 -0.5609
 2416UDC     C726572   2.685  11.018   3.641  0.0847 -0.6796  0.1784
 2416UDC     C826573   2.578  11.075   3.735 -0.6446  0.9210  0.3561
 2416UDC     C926574   2.476  10.977   3.771 -1.1380  0.4031 -0.5670
 2416UDC    C1026575   2.529  10.844   3.834 -0.2278  0.6659 -0.3447
 2416UDC    C1126576   2.615  10.866   3.953 -0.9342 -0.0010 -0.1525
 2417UDC     C126577  15.425   7.185  18.483 -0.3252  0.2070  0.2927
 2417UDC     C226578  15.548   7.231  18.400 -0.4633 -0.6262 -0.1108
 2417UDC     C326579  15.626   7.118  18.330  0.5242 -0.7406  0.2507
 2417UDC     C426580  15.550   7.058  18.218 -0.3650 -0.6692 -0.3278
 2417UDC     C526581  15.620   7.059  18.080  0.6991 -0.0111 -0.4388
 2417UDC     C626582  15.767   7.037  18.086 -0.3756 -0.8966 -0.6645
 2417UDC     C726583  15.838   7.151  18.004 -0.6134  0.7032 -0.5575
 2417UDC     C826584  15.991   7.141  18.002 -0.8379 -0.3461  1.3361
 2417UDC     C926585  16.057   7.002  17.976 -0.6029  0.0511  0.8093
 2417UDC    C1026586  16.182   7.011  17.887 -0.2782 -1.2829  0.1369
 2417UDC    C1126587  16.302   6.924  17.920 -0.3312  0.4187 -0.6228
 2418UDC     C126588  15.760   3.004  18.109 -0.1509 -1.4340 -0.3936
 2418UDC     C226589  15.613   2.969  18.151  0.2119 -0.2025 -0.2534
 2418UDC     C326590  15.583   2.830  18.207 -1.0913 -0.0155  0.0275
 2418UDC     C426591  15.452   2.802  18.277  0.5550  1.0156  0.5494
 2418UDC     C526592  15.425   2.914  18.388 -1.2404  0.6065  0.9003
 2418UDC     C626593  15.270   2.903  18.404 -0.4924 -0.4273 -0.5567
 2418UDC     C726594  15.202   3.026  18.471  0.4020  0.8005  0.3850
 2418UDC     C826595  15.062   2.985  18.533 -0.5215  0.1850 -0.0207
 2418UDC     C926596  14.985   3.109  18.584  0.9240  0.0930  0.3254
 2418UDC    C1026597  15.044   3.182  18.706 -0.6433  0.6516 -0.4764
 2418UDC    C1126598  15.093   3.108  18.834 -0.2680  0.2751 -0.8143
 2419UDC     C126599   9.518  12.585  11.336 -0.3556  0.3452 -0.6304
 2419UDC     C226600   9.514  12.736  11.379  0.1475  0.0224 -0.0546
 2419UDC     C326601   9.568  12.739  11.523 -0.4143  0.4356  0.7189
 2419UDC     C426602   9.552  12.870  11.598  0.3556 -0.9144 -0.4573
 2419UDC     C526603   9.632  12.856  11.723  0.1745 -0.4283 -0.3938
 2419UDC     C626604   9.598  12.930  11.853  0.3081 -0.3518  1.0963
 2419UDC     C726605   9.475  12.908  11.946  0.2403 -0.2701  0.5388
 2419UDC     C826606   9.503  12.823  12.071  0.3868 -0.4588 -0.4457
 2419UDC     C926607   9.508  12.667  12.050 -0.6474 -0.7638 -1.1239
 2419UDC    C1026608   9.582  12.617  12.174  0.0124  0.3115 -0.0606
 2419UDC    C1126609   9.659  12.481  12.165  0.5451  0.0703 -0.4775
 2420UDC     C126610  10.497  14.748  13.499  0.0864 -0.3809 -0.3101
 2420UDC     C226611  10.350  14.779  13.477  0.6370 -0.3919  0.3804
 2420UDC     C326612  10.260  14.729  13.595  0.2731 -0.1926  0.8276
 2420UDC     C426613  10.274  14.813  13.716 -0.2733  0.2659  0.3337
 2420UDC     C526614  10.156  14.798  13.810  0.1938 -0.6969  0.1873
 2420UDC     C626615  10.190  14.885  13.929 -0.5094  0.5955 -0.3500
 2420UDC     C726616  10.097  14.870  14.050 -1.0810 -0.4509 -0.2741
 2420UDC     C826617   9.952  14.845  14.003  0.9398  0.8644  0.3731
 2420UDC     C926618   9.838  14.807  14.103 -0.8471  0.4239  0.1122
 2420UDC    C1026619   9.697  14.805  14.041 -0.6785 -1.0013 -0.7200
 2420UDC    C1126620   9.584  14.807  14.138 -0.0137  0.4485 -0.4589
 2421UDC     C126621  19.602   0.677  15.589 -0.3199 -0.3839 -0.3229
 2421UDC     C226622  19.549   0.642  15.734 -0.6051  0.2680  2.0529
 2421UDC     C326623  19.401   0.619  15.739 -0.6584  0.7911  0.1655
 2421UDC     C426624  19.368   0.573  15.886  0.0054 -0.2140  1.2181
 2421UDC     C526625  19.215   0.551  15.912 -0.2351  0.4095 -0.2614
 2421UDC     C626626  19.186   0.459  16.037 -0.6729 -0.9615 -1.7618
 2421UDC     C726627  19.287   0.479  16.151 -0.0609 -0.7473 -0.0830
 2421UDC     C826628  19.312   0.351  16.242  0.7869  0.6586 -0.1830
 2421UDC     C926629  19.403   0.403  16.344  0.0326  0.1637  0.7756
 2421UDC    C1026630  19.547   0.420  16.308 -0.3121  1.8791  0.0253
 2421UDC    C1126631  19.643   0.292  16.283  0.3286  0.3394 -0.2146
 2422UDC     C126632   4.320   9.214   9.262  0.9535 -0.0670 -0.7891
 2422UDC     C226633   4.433   9.277   9.192 -1.5272 -0.6032  0.1793
 2422UDC     C326634   4.451   9.430   9.189  0.4928 -0.0918  0.0064
 2422UDC     C426635   4.559   9.486   9.087 -1.1167  0.4202 -0.7340
 2422UDC     C526636   4.579   9.636   9.088 -0.5035  0.4858 -0.1471
 2422UDC     C626637   4.459   9.695   9.017 -0.4896 -0.3557  0.2855
 2422UDC     C726638   4.374   9.787   9.102 -0.1586 -0.4763  0.5837
 2422UDC     C826639   4.219   9.772   9.083  1.0002 -0.3218  0.3684
 2422UDC     C926640   4.118   9.872   9.151 -1.4710 -0.3891 -0.2830
 2422UDC    C1026641   3.974   9.877   9.113 -0.2405  0.8367 -0.2001
 2422UDC    C1126642   3.888   9.755   9.152 -0.9547 -0.9334 -0.6795
 2423UDC     C126643  17.394   5.809  16.350 -0.4742 -0.5653  0.2180
 2423UDC     C226644  17.475   5.708  16.262 -0.1012 -0.1844 -0.3984
 2423UDC     C326645  17.586   5.610  16.316  0.7618  0.0004  0.6324
 2423UDC     C426646  17.676   5.574  16.195 -0.0624  0.3651 -0.2861
 2423UDC     C526647  17.803   5.496  16.225 -0.2147  1.1485  0.1237
 2423UDC     C626648  17.928   5.583  16.200  0.6336 -0.5899 -0.5348
 2423UDC     C726649  18.061   5.512  16.159  0.4108 -0.8824 -0.7142
 2423UDC     C826650  18.193   5.597  16.162  0.7798  0.6453  0.5171
 2423UDC     C926651  18.187   5.703  16.278  1.3195 -0.5170  0.1331
 2423UDC    C1026652  18.308   5.798  16.287  1.1641 -0.0487 -0.9609
 2423UDC    C1126653  18.425   5.751  16.375  0.8066  0.5497 -0.0581
 2424UDC     C126654   2.717   7.109  11.148 -0.5175  0.5562  0.1954
 2424UDC     C226655   2.750   7.165  11.007  0.6174  0.7297 -0.0573
 2424UDC     C326656   2.881   7.104  10.949 -0.4277 -0.8548  1.0925
 2424UDC     C426657   2.896   7.140  10.800 -0.1030  0.4366 -0.1609
 2424UDC     C526658   2.987   7.256  10.762 -0.4514  0.3581  0.3965
 2424UDC     C626659   2.995   7.272  10.609  0.4483 -1.0549  0.3886
 2424UDC     C726660   3.076   7.388  10.542  0.4160 -0.0217 -0.0840
 2424UDC     C826661   3.075   7.402  10.385  0.6199 -0.6025  0.2373
 2424UDC     C926662   3.060   7.281  10.292  0.1349  0.5517  0.3143
 2424UDC    C1026663   3.177   7.179  10.295  0.5875 -0.4958 -0.2238
 2424UDC    C1126664   3.208   7.092  10.172 -0.5662 -0.3466  0.1292
 2425UDC     C126665  11.376   9.495  16.487  0.6934  0.1017 -0.1271
 2425UDC     C226666  11.380   9.389  16.596 -0.2653 -0.2275 -0.4635
 2425UDC     C326667  11.250   9.389  16.686 -0.3071 -0.2286  0.2040
 2425UDC     C426668  11.283   9.281  16.796 -0.4175  1.1463  1.1279
 2425UDC     C526669  11.294   9.136  16.744 -0.0773 -0.2490  0.4834
 2425UDC     C626670  11.306   9.033  16.858  0.0237 -0.1123  0.1196
 2425UDC     C726671  11.266   8.884  16.836  0.1084 -0.3673 -1.6295
 2425UDC     C826672  11.292   8.783  16.954 -0.4611 -0.0136  0.5266
 2425UDC     C926673  11.242   8.640  16.931 -0.1653  1.0564 -0.4251
 2425UDC    C1026674  11.230   8.543  17.050  0.8225 -0.4770 -0.1349
 2425UDC    C1126675  11.088   8.526  17.095  0.3878 -0.1840 -0.8746
 2426UDC     C126676  16.408  15.784   8.386  0.0098 -0.4425 -0.6511
 2426UDC     C226677  16.342  15.906   8.325  0.1035  0.3009 -1.0595
 2426UDC     C326678  16.393  16.032   8.400 -0.5437 -0.9193  0.5193
 2426UDC     C426679  16.417  15.999   8.553  0.2603 -0.7403 -0.1593
 2426UDC     C526680  16.283  15.975   8.628  0.1104 -0.2230 -0.1293
 2426UDC     C626681  16.184  16.083   8.595 -0.9500 -0.3491  0.6082
 2426UDC     C726682  16.038  16.043   8.623 -0.4888  1.8257  0.9957
 2426UDC     C826683  15.930  16.142   8.588  0.5801  0.1498  0.1929
 2426UDC     C926684  15.916  16.278   8.654 -0.3579 -0.6037 -1.0772
 2426UDC    C1026685  15.840  16.383   8.567 -0.0505 -0.7717 -0.3905
 2426UDC    C1126686  15.822  16.523   8.623 -0.4400 -0.8650  0.5680
 2427UDC     C126687   5.265  12.165   6.562 -0.7566 -1.3641  0.7532
 2427UDC     C226688   5.236  12.015   6.559 -0.5785 -0.5036  0.4436
 2427UDC     C326689   5.239  11.958   6.702 -0.4430 -0.5543 -0.4032
 2427UDC     C426690   5.139  12.034   6.798 -0.4781  0.0537 -0.9771
 2427UDC     C526691   4.995  12.023   6.742 -0.6557 -0.5390  0.0554
 2427UDC     C626692   4.938  12.168   6.727  0.5242  1.6373 -0.7328
 2427UDC     C726693   4.784  12.163   6.726  0.1995  0.5530  0.0072
 2427UDC     C826694   4.721  12.112   6.852  0.2428 -0.6849  0.2107
 2427UDC     C926695   4.575  12.154   6.867 -0.1016 -1.1110 -0.3984
 2427UDC    C1026696   4.584  12.292   6.939  0.0800 -1.6731  0.9923
 2427UDC    C1126697   4.682  12.296   7.055 -0.3688  1.0765 -0.8696
 2428UDC     C126698  11.120   8.096  17.847 -1.4086  0.2566 -0.8600
 2428UDC     C226699  11.275   8.121  17.870  0.4404  0.2778  0.8254
 2428UDC     C326700  11.341   8.115  17.740  0.9384 -0.3977 -0.0195
 2428UDC     C426701  11.266   8.189  17.621 -0.2121 -0.2433 -0.7085
 2428UDC     C526702  11.336   8.325  17.593 -0.0781 -0.3697  0.0188
 2428UDC     C626703  11.307   8.398  17.458  0.6631  1.4245  0.4225
 2428UDC     C726704  11.170   8.462  17.492  0.8040  0.8614  0.1785
 2428UDC     C826705  11.169   8.568  17.605  0.5589 -1.0525  0.6021
 2428UDC     C926706  11.186   8.710  17.537  0.0928 -0.1679 -0.4529
 2428UDC    C1026707  11.283   8.805  17.628 -0.3008  0.9086  0.8331
 2428UDC    C1126708  11.331   8.930  17.545  0.7801 -0.2510 -0.1518
 2429UDC     C126709  12.625  14.862  19.111  0.1013  0.3666 -1.0070
 2429UDC     C226710  12.677  14.727  19.163  1.1198 -0.3895  0.4670
 2429UDC     C326711  12.727  14.720  19.310  1.4569 -0.2901 -0.1284
 2429UDC     C426712  12.842  14.826  19.336 -0.1982 -1.0905 -0.0425
 2429UDC     C526713  12.811  14.938  19.440  0.2817  0.2401  0.9386
 2429UDC     C626714  12.930  14.955  19.536 -1.0115  0.5659  0.3383
 2429UDC     C726715  12.919  15.033  19.668 -0.8054 -0.8387  0.4802
 2429UDC     C826716  12.872  15.177  19.656  0.3065  0.0725  1.2932
 2429UDC     C926717  12.927  15.282  19.749  0.3396 -0.3617  0.3379
 2429UDC    C1026718  12.854  15.292  19.881  0.9083  0.3483 -0.5482
 2429UDC    C1126719  12.877  15.430  19.958  0.5716 -0.1287 -0.3460
 2430UDC     C126720  11.395  18.748  10.323 -0.8800  0.1901  0.9231
 2430UDC     C226721  11.513  18.669  10.273  0.4438 -0.1356 -0.0613
 2430UDC     C326722  11.606  18.744  10.167 -0.5419  0.1361 -1.0995
 2430UDC     C426723  11.737  18.811  10.218  0.2413  0.4563  0.1414
 2430UDC     C526724  11.775  18.944  10.160  0.4537 -0.6153 -0.3412
 2430UDC     C626725  11.914  19.010  10.184 -0.5718  0.4613  0.6101
 2430UDC     C726726  11.902  19.156  10.235 -1.0144 -0.6177  0.5465
 2430UDC     C826727  11.843  19.241  10.120  0.1078 -0.0187 -0.8435
 2430UDC     C926728  11.832  19.392  10.141 -0.7399  1.0697  0.0534
 2430UDC    C1026729  11.725  19.453  10.236  0.3253  0.1390 -0.0637
 2430UDC    C1126730  11.748  19.607  10.251 -0.7307  0.2241  0.8321
 2431UDC     C126731  10.250  17.618  17.710 -0.2032  0.5846 -0.2571
 2431UDC     C226732  10.170  17.484  17.693  0.0081 -0.0558  0.6687
 2431UDC     C326733  10.020  17.505  17.721  1.0600  0.8655 -0.5157
 2431UDC     C426734   9.972  17.553  17.859  0.6398  0.4559 -0.1403
 2431UDC     C526735   9.846  17.636  17.846 -0.5817 -0.3470  0.5450
 2431UDC     C626736   9.775  17.685  17.971 -0.5382  0.0002 -1.8357
 2431UDC     C726737   9.745  17.557  18.052  0.0068 -0.6327 -0.4001
 2431UDC     C826738   9.718  17.585  18.203  0.4996  0.4125  0.4306
 2431UDC     C926739   9.690  17.462  18.282  0.4490  0.6652 -1.1731
 2431UDC    C1026740   9.672  17.499  18.442 -0.7163  1.4915  0.6186
 2431UDC    C1126741   9.575  17.420  18.528 -0.1402 -0.5871  0.1478
 2432UDC     C126742   5.693   7.360  13.457 -0.5636 -0.3183 -0.2835
 2432UDC     C226743   5.591   7.380  13.341 -0.7060  0.8869 -0.6496
 2432UDC     C326744   5.583   7.276  13.240  1.0358  0.2815 -0.6767
 2432UDC     C426745   5.532   7.138  13.294 -0.5510 -0.0219 -0.5826
 2432UDC     C526746   5.551   7.011  13.210 -0.2902 -0.0578 -0.3059
 2432UDC     C626747   5.495   7.004  13.068  0.7926  0.3985 -0.5187
 2432UDC     C726748   5.520   6.873  12.995  0.5089  0.2094  1.4874
 2432UDC     C826749   5.658   6.855  12.938 -0.4364 -0.0580 -0.0570
 2432UDC     C926750   5.679   6.964  12.834 -0.1199 -0.4318  0.3817
 2432UDC    C1026751   5.799   6.931  12.745 -0.0239 -0.8492 -0.9376
 2432UDC    C1126752   5.796   6.808  12.652  1.0341 -0.7100 -1.2814
 2433UDC     C126753  11.933   2.794   1.188  1.3385  0.8505  0.5393
 2433UDC     C226754  11.909   2.871   1.328 -1.4526 -0.2155  0.9479
 2433UDC     C326755  11.767   2.904   1.373  1.7783 -0.0734 -0.0405
 2433UDC     C426756  11.749   2.949   1.518 -0.6193 -0.1765 -0.8097
 2433UDC     C526757  11.596   2.970   1.553 -0.6969 -0.9570 -0.8526
 2433UDC     C626758  11.563   3.049   1.689  0.2193  0.2219  0.4229
 2433UDC     C726759  11.524   2.981   1.815  1.3481  0.1755 -0.2347
 2433UDC     C826760  11.456   3.082   1.902  0.6831 -0.6353 -0.9826
 2433UDC     C926761  11.354   3.017   2.002  0.4292 -0.5097 -0.8101
 2433UDC    C1026762  11.235   3.105   2.033 -0.4228  0.1379 -1.0330
 2433UDC    C1126763  11.259   3.254   2.055  0.4195  1.1529  0.5096
 2434UDC     C126764   3.593  10.143   6.708 -0.1439  0.2040 -0.6673
 2434UDC     C226765   3.549  10.081   6.574  0.0801  1.7297 -0.2969
 2434UDC     C326766   3.635  10.061   6.448 -0.4419 -1.1752 -0.2105
 2434UDC     C426767   3.692  10.194   6.393 -1.1499  0.4250  0.0381
 2434UDC     C526768   3.756  10.167   6.257  1.7400  0.8520 -0.1274
 2434UDC     C626769   3.786  10.291   6.174  0.0962  0.1597 -1.2887
 2434UDC     C726770   3.668  10.366   6.126  1.9152  0.1989 -0.6076
 2434UDC     C826771   3.701  10.476   6.028  0.6237  0.7140 -0.7504
 2434UDC     C926772   3.754  10.411   5.894 -0.0668 -0.5238  0.6340
 2434UDC    C1026773   3.733  10.498   5.767 -0.4301 -0.5971  0.4163
 2434UDC    C1126774   3.690  10.432   5.639  0.4166 -0.0264  0.3722
 2435UDC     C126775   8.553  16.106   9.303 -0.7632  0.9633  1.1152
 2435UDC     C226776   8.660  16.108   9.184 -0.3378  0.5522 -0.3058
 2435UDC     C326777   8.791  16.027   9.217  0.1150  0.9113  0.3059
 2435UDC     C426778   8.934  16.067   9.170  0.8138 -1.1727 -1.2527
 2435UDC     C526779   9.036  15.956   9.167 -0.2456  0.4614  0.8196
 2435UDC     C626780   8.981  15.813   9.116 -0.2507 -0.2922  0.2296
 2435UDC     C726781   9.075  15.694   9.113 -0.3793  0.5118  0.6607
 2435UDC     C826782   9.023  15.562   9.163  0.6174 -0.2814 -0.7017
 2435UDC     C926783   8.986  15.564   9.314  0.7546 -0.3760  1.5385
 2435UDC    C1026784   8.952  15.429   9.375 -0.1348 -0.4136 -0.2315
 2435UDC    C1126785   8.866  15.410   9.499  0.4855  0.2112  0.0714
 2436UDC     C126786  10.303   8.986  16.605 -0.0440  0.1285 -0.0006
 2436UDC     C226787  10.436   9.020  16.674 -0.4523 -0.5966 -0.2331
 2436UDC     C326788  10.440   8.998  16.826 -0.4844  0.0644  0.2213
 2436UDC     C426789  10.406   8.847  16.868  0.6094  0.2263 -0.5768
 2436UDC     C526790  10.510   8.743  16.896  0.7946  1.1984 -0.2588
 2436UDC     C626791  10.483   8.613  16.825  0.4067  0.5166 -0.2620
 2436UDC     C726792  10.595   8.507  16.800 -0.7365 -0.1562 -0.5415
 2436UDC     C826793  10.709   8.568  16.718 -0.0654  0.4371  0.6740
 2436UDC     C926794  10.666   8.600  16.575 -0.3248  0.5156 -0.3279
 2436UDC    C1026795  10.716   8.497  16.482  0.1020 -0.1099  0.7681
 2436UDC    C1126796  10.865   8.485  16.504  0.2994  0.7916 -0.4751
 2437UDC     C126797  17.844   8.506  17.569  0.1759  0.3732  0.1991
 2437UDC     C226798  17.941   8.609  17.635  0.1411 -0.1741  0.1421
 2437UDC     C326799  18.042   8.649  17.527  1.0411  0.4534 -0.6500
 2437UDC     C426800  18.169   8.721  17.566  0.3937 -1.0465  0.4593
 2437UDC     C526801  18.284   8.650  17.497  0.1042 -0.6212 -0.0986
 2437UDC     C626802  18.360   8.724  17.377  0.0336 -0.5524  0.0158
 2437UDC     C726803  18.459   8.642  17.298  0.8899  0.6588  0.2010
 2437UDC     C826804  18.397   8.525  17.215 -0.0528 -1.2114  0.5101
 2437UDC     C926805  18.304   8.565  17.096  1.0157  0.4220 -1.8602
 2437UDC    C1026806  18.304   8.463  16.975  0.7804 -0.5135 -0.5999
 2437UDC    C1126807  18.314   8.311  17.012 -0.4301 -0.2176  1.0067
 2438UDC     C126808   8.685   9.135  13.024  0.4231 -0.5647 -0.3570
 2438UDC     C226809   8.650   8.987  13.007  0.8333 -0.9461 -0.5600
 2438UDC     C326810   8.586   8.924  13.134  0.4893 -0.2959  0.0441
 2438UDC     C426811   8.677   8.893  13.258  0.5944 -0.6821  0.6809
 2438UDC     C526812   8.712   8.986  13.370  0.4584  0.4038  0.4136
 2438UDC     C626813   8.848   8.935  13.445 -0.2845  0.6078  1.6375
 2438UDC     C726814   8.904   9.047  13.531  0.2886  0.4189  0.0148
 2438UDC     C826815   9.048   9.043  13.569 -0.5217 -0.1215 -0.5574
 2438UDC     C926816   9.108   9.160  13.654  0.3616 -0.0992  0.5044
 2438UDC    C1026817   9.190   9.112  13.775  1.0500 -0.1805  0.0077
 2438UDC    C1126818   9.215   9.240  13.862  0.8731 -0.1806 -0.5937
 2439UDC     C126819  13.535   9.087  16.233  0.4393 -0.6213 -1.0176
 2439UDC     C226820  13.410   9.044  16.154 -0.2636 -0.4496  0.3679
 2439UDC     C326821  13.403   8.901  16.093  0.6656  0.8050  0.6678
 2439UDC     C426822  13.300   8.906  15.971  0.4418 -0.7586  0.0174
 2439UDC     C526823  13.301   8.793  15.870 -0.7561 -1.4165 -1.1486
 2439UDC     C626824  13.442   8.773  15.817 -0.1076 -0.7021 -0.4294
 2439UDC     C726825  13.468   8.724  15.676 -0.2618  0.2128  1.0097
 2439UDC     C826826  13.616   8.668  15.660  1.2266 -0.2078  0.4834
 2439UDC     C926827  13.674   8.599  15.531  0.4356 -0.3016 -0.5723
 2439UDC    C1026828  13.549   8.535  15.466 -0.8662  0.7961 -0.3020
 2439UDC    C1126829  13.507   8.414  15.553  0.6524  0.3214 -0.0292
 2440UDC     C126830   8.706   2.685   1.301  0.1385 -0.1650  0.0387
 2440UDC     C226831   8.664   2.793   1.205 -0.4648  0.0974  0.7223
 2440UDC     C326832   8.515   2.806   1.185 -1.1310  1.6681 -0.3273
 2440UDC     C426833   8.449   2.944   1.229  0.1343 -0.2118  1.6787
 2440UDC     C526834   8.489   2.972   1.377 -1.8260  0.1551 -0.7273
 2440UDC     C626835   8.449   3.109   1.439  0.2299 -0.0447  0.5421
 2440UDC     C726836   8.299   3.123   1.438  0.1295 -0.5888 -0.7863
 2440UDC     C826837   8.272   3.235   1.532  0.5618 -0.0408  0.1986
 2440UDC     C926838   8.316   3.196   1.673 -0.4178  0.1333 -1.4668
 2440UDC    C1026839   8.221   3.102   1.740 -0.1726  0.0343 -1.1715
 2440UDC    C1126840   8.222   3.066   1.892  0.0911 -0.0892  0.2144
 2441UDC     C126841  16.025  19.491   9.201  0.5910 -0.1299 -0.0205
 2441UDC     C226842  16.070  19.421   9.074 -1.0028 -1.1243  0.0352
 2441UDC     C326843  16.215  19.469   9.042  0.3587 -0.4263  0.9413
 2441UDC     C426844  16.274  19.389   8.924 -0.3648  0.0173  0.2769
 2441UDC     C526845  16.326  19.247   8.962 -0.1047 -0.0922 -0.3407
 2441UDC     C626846  16.359  19.165   8.835  0.9016  0.0225 -0.1776
 2441UDC     C726847  16.467  19.053   8.848  0.6051  0.2679  1.0171
 2441UDC     C826848  16.419  18.921   8.911 -1.0327 -0.5915 -0.8605
 2441UDC     C926849  16.524  18.812   8.944  0.0239 -0.2884  1.4048
 2441UDC    C1026850  16.662  18.863   8.996 -0.6010  0.0380 -0.3618
 2441UDC    C1126851  16.783  18.758   8.997  0.5948 -0.5084 -0.1509
 2442UDC     C126852  16.591   7.972   6.622 -0.9055  0.5140  0.0415
 2442UDC     C226853  16.571   7.830   6.670 -0.4889  0.3376  0.6436
 2442UDC     C326854  16.517   7.830   6.813 -0.1701  0.0463 -0.0687
 2442UDC     C426855  16.360   7.857   6.817 -1.1203  0.8313 -0.1247
 2442UDC     C526856  16.317   7.942   6.931  0.0890  0.0780 -0.9261
 2442UDC     C626857  16.256   7.853   7.046 -1.1554 -0.5026  0.6581
 2442UDC     C726858  16.151   7.738   7.011 -0.3534 -0.5094  0.4903
 2442UDC     C826859  16.084   7.672   7.136 -0.2564 -1.0274  0.1301
 2442UDC     C926860  16.098   7.522   7.169 -0.2279 -0.2934 -0.6088
 2442UDC    C1026861  16.100   7.416   7.054  0.2633  0.2953 -0.0580
 2442UDC    C1126862  16.190   7.288   7.070 -0.3080 -0.5225 -1.1903
 2443UDC     C126863  14.344   8.785   1.946 -1.0830  0.0100  0.0924
 2443UDC     C226864  14.296   8.639   1.935 -0.7384  0.1565 -0.0054
 2443UDC     C326865  14.156   8.633   1.869  0.5236 -0.1683 -1.2044
 2443UDC     C426866  14.148   8.544   1.746 -0.6120  0.3467 -0.1653
 2443UDC     C526867  14.020   8.542   1.671 -0.1415  0.0386  0.3767
 2443UDC     C626868  14.028   8.472   1.536 -0.3058  0.3640 -0.4088
 2443UDC     C726869  13.906   8.503   1.451 -0.5053  0.1738 -0.0649
 2443UDC     C826870  13.771   8.466   1.514 -0.4771  0.6064 -0.2738
 2443UDC     C926871  13.641   8.462   1.434 -0.0782  2.2132  0.3835
 2443UDC    C1026872  13.531   8.551   1.492  1.0336  1.1842  0.0439
 2443UDC    C1126873  13.389   8.477   1.489 -0.4125  0.2889 -0.6706
 2444UDC     C126874   3.338   9.260   5.450 -0.1366  0.7249 -0.0468
 2444UDC     C226875   3.352   9.195   5.591 -0.2394  0.9901 -0.3198
 2444UDC     C326876   3.363   9.283   5.709 -0.2210 -0.7888  1.6133
 2444UDC     C426877   3.500   9.351   5.726 -0.8224  0.0098 -0.8172
 2444UDC     C526878   3.504   9.494   5.782 -0.2654  0.6027 -0.1631
 2444UDC     C626879   3.653   9.544   5.807  1.2063  0.7170 -0.0453
 2444UDC     C726880   3.733   9.482   5.928 -0.1880 -0.3661 -0.6519
 2444UDC     C826881   3.884   9.532   5.927 -0.0631  0.5258 -0.3338
 2444UDC     C926882   3.987   9.500   6.040 -0.6662 -0.0438  0.0049
 2444UDC    C1026883   4.126   9.551   5.999  0.6953  0.0963  0.9600
 2444UDC    C1126884   4.210   9.470   5.896 -0.9572  0.0722 -0.3945
 2445UDC     C126885  15.615   5.534   1.158 -0.9219 -0.5143 -0.5577
 2445UDC     C226886  15.621   5.528   1.003 -0.6172 -0.8687  0.6256
 2445UDC     C326887  15.696   5.425   0.926  0.0527  0.5830 -0.5906
 2445UDC     C426888  15.757   5.473   0.793  0.6539 -0.0939 -0.3721
 2445UDC     C526889  15.822   5.354   0.715 -0.3170  0.0160  0.3298
 2445UDC     C626890  15.915   5.272   0.804 -0.0025 -0.8245  1.0968
 2445UDC     C726891  16.012   5.212   0.703  0.5014 -0.0246 -0.5020
 2445UDC     C826892  16.125   5.313   0.677  0.7507 -1.0963  0.2474
 2445UDC     C926893  16.198   5.371   0.805  0.7844 -0.5798 -0.9458
 2445UDC    C1026894  16.241   5.253   0.892  0.5863 -0.3089  0.3318
 2445UDC    C1126895  16.349   5.276   0.995 -0.3410  0.1674 -1.1466
 2446UDC     C126896   6.038   1.857   6.509  0.6706 -1.0829  0.2742
 2446UDC     C226897   6.081   1.790   6.641  1.2378  0.0916 -0.4146
 2446UDC     C326898   6.220   1.834   6.704  0.6784  0.2325 -0.0300
 2446UDC     C426899   6.341   1.802   6.612  0.8423  0.2886 -0.0072
 2446UDC     C526900   6.470   1.829   6.688  0.0446 -0.3487  0.0568
 2446UDC     C626901   6.544   1.710   6.743 -0.1097  0.0335  0.1240
 2446UDC     C726902   6.579   1.633   6.625  0.1424  0.1043 -0.1893
 2446UDC     C826903   6.562   1.479   6.632  0.7735  1.0913 -0.7818
 2446UDC     C926904   6.584   1.410   6.496  0.0709 -0.6551 -0.2822
 2446UDC    C1026905   6.503   1.474   6.381  0.1703 -0.0143 -0.8763
 2446UDC    C1126906   6.567   1.436   6.247  0.6948 -0.8094 -0.3433
 2447UDC     C126907   2.610   8.263  15.337  0.0464  0.4965  0.0272
 2447UDC     C226908   2.517   8.272  15.461 -1.3839 -0.5645 -0.7949
 2447UDC     C326909   2.396   8.180  15.443 -0.0085  0.4155  0.2405
 2447UDC     C426910   2.272   8.258  15.410  0.6736  0.4018  0.4917
 2447UDC     C526911   2.277   8.325  15.274  0.3496 -0.1326 -0.2667
 2447UDC     C626912   2.143   8.333  15.199  0.5974  0.7164  0.2853
 2447UDC     C726913   2.197   8.369  15.057  0.5898  0.2663 -1.3184
 2447UDC     C826914   2.184   8.243  14.971 -0.4251  0.3883  0.1890
 2447UDC     C926915   2.266   8.248  14.846  0.5915  0.3840 -0.0885
 2447UDC    C1026916   2.405   8.235  14.907 -0.3447  1.0060  0.6275
 2447UDC    C1126917   2.507   8.340  14.846  1.0471 -0.2934 -0.1675
 2448UDC     C126918   5.223   8.881   0.380  0.3723 -0.2101 -0.5928
 2448UDC     C226919   5.349   8.865   0.293  0.4768 -0.6126  0.0247
 2448UDC     C326920   5.465   8.961   0.335  0.0363  0.5474  0.5539
 2448UDC     C426921   5.601   8.886   0.331 -1.2291 -0.9913  0.0597
 2448UDC     C526922   5.699   8.968   0.412 -1.1088  0.2576  0.6154
 2448UDC     C626923   5.771   8.913   0.532  0.4077  0.0885 -0.1157
 2448UDC     C726924   5.893   8.828   0.509 -0.4218 -0.9214  0.8914
 2448UDC     C826925   5.918   8.748   0.640  1.5947  0.2162  0.7134
 2448UDC     C926926   5.812   8.642   0.666  1.2202  0.0321 -0.2332
 2448UDC    C1026927   5.757   8.639   0.810  0.1270  0.2964  0.5116
 2448UDC    C1126928   5.658   8.514   0.832 -0.0927  0.9125 -0.8455
 2449UDC     C126929  15.512  16.019   7.447 -0.4307 -0.7037  0.5513
 2449UDC     C226930  15.365  16.054   7.395 -0.6988  0.0859  0.6340
 2449UDC     C326931  15.309  15.965   7.281 -0.8303 -0.1431  0.2358
 2449UDC     C426932  15.183  15.881   7.306  0.2922 -1.5126 -0.0742
 2449UDC     C526933  15.114  15.803   7.196 -0.4943  0.2728  0.2961
 2449UDC     C626934  15.023  15.695   7.251  0.2066 -0.3841  0.1336
 2449UDC     C726935  15.075  15.581   7.338 -0.4130 -1.0378 -0.0585
 2449UDC     C826936  14.954  15.514   7.407 -0.1553  0.1495 -1.0107
 2449UDC     C926937  14.992  15.394   7.495 -0.0240  0.2588  1.2105
 2449UDC    C1026938  15.074  15.294   7.414  0.2779  0.3435 -0.0914
 2449UDC    C1126939  15.099  15.181   7.505 -0.1932  0.2841 -0.9948
 2450UDC     C126940   1.172   9.313   1.328  0.0294  0.7896 -1.1218
 2450UDC     C226941   1.140   9.245   1.196 -0.0330 -0.0255  0.0623
 2450UDC     C326942   1.039   9.316   1.110 -0.8593 -0.0139  0.2629
 2450UDC     C426943   1.106   9.389   0.990 -0.3487  0.1402 -0.4824
 2450UDC     C526944   1.052   9.520   0.936 -0.5937  0.5328  0.7698
 2450UDC     C626945   1.159   9.604   0.860 -0.3309  0.7961 -1.6867
 2450UDC     C726946   1.284   9.664   0.929 -0.1160 -0.1215  0.8544
 2450UDC     C826947   1.356   9.751   0.828  0.2172  0.5330  0.1305
 2450UDC     C926948   1.400   9.670   0.709  0.2273  0.1476 -0.6124
 2450UDC    C1026949   1.524   9.584   0.745 -0.1408 -0.0662 -0.0523
 2450UDC    C1126950   1.563   9.477   0.642 -0.4934  0.0820  0.9183
 2451UDC     C126951  18.401   8.013   4.200  0.5573 -0.5005 -0.4841
 2451UDC     C226952  18.311   7.922   4.108 -0.9221 -0.0342 -0.9185
 2451UDC     C326953  18.234   8.006   4.008 -0.6329  0.3914  0.3166
 2451UDC     C426954  18.156   8.124   4.074  0.2380 -1.1457 -0.2570
 2451UDC     C526955  18.071   8.206   3.978  0.9458 -0.4394 -0.6567
 2451UDC     C626956  17.999   8.327   4.044  0.4628  0.5295  0.0379
 2451UDC     C726957  17.960   8.448   3.955  0.8221 -1.3315  0.4785
 2451UDC     C826958  17.979   8.598   4.005 -0.5726 -0.4606  1.4594
 2451UDC     C926959  17.925   8.624   4.150 -0.3591  0.0247  0.4779
 2451UDC    C1026960  17.999   8.560   4.272  1.3132 -0.4494 -0.1651
 2451UDC    C1126961  17.957   8.619   4.407  1.5823  0.3493 -0.2184
 2452UDC     C126962  13.307  11.946  18.539  0.4963  0.7578 -0.7102
 2452UDC     C226963  13.247  11.812  18.592  0.6263 -0.7548  0.4344
 2452UDC     C326964  13.100  11.771  18.554  0.2709  0.0246  0.1279
 2452UDC     C426965  13.014  11.758  18.684 -0.5908 -0.7513  0.2613
 2452UDC     C526966  13.081  11.664  18.787  0.1539 -0.8906 -1.6261
 2452UDC     C626967  13.027  11.521  18.787  0.8951 -0.5584  0.3599
 2452UDC     C726968  13.113  11.407  18.849  0.0758  0.5713  0.3669
 2452UDC     C826969  13.137  11.273  18.763  0.8028 -1.1099  1.0764
 2452UDC     C926970  13.264  11.203  18.803  0.2497  1.5911 -0.5894
 2452UDC    C1026971  13.295  11.082  18.723  0.4002  0.8980  0.5255
 2452UDC    C1126972  13.435  11.018  18.728 -0.3583 -0.1961 -0.5992
 2453UDC     C126973  11.319   4.700   3.565 -1.0813  0.4149  0.5348
 2453UDC     C226974  11.214   4.798   3.617 -0.2357  0.4917  1.2560
 2453UDC     C326975  11.089   4.726   3.667  0.2587 -0.2786 -0.7727
 2453UDC     C426976  10.984   4.830   3.694 -0.6677  1.0762  0.2395
 2453UDC     C526977  11.025   4.931   3.803 -0.4669  0.2741 -0.0568
 2453UDC     C626978  10.948   5.066   3.825 -0.1247 -0.0515 -0.4937
 2453UDC     C726979  11.026   5.178   3.902  0.2769 -0.5731  0.7512
 2453UDC     C826980  10.944   5.305   3.958  0.9666  0.1020  0.1055
 2453UDC     C926981  10.876   5.268   4.095 -0.0257 -0.8851 -0.0595
 2453UDC    C1026982  10.998   5.230   4.181  0.8283 -0.3841 -0.5368
 2453UDC    C1126983  11.083   5.342   4.240 -0.9731  0.3244  0.1301
 2454UDC     C126984   8.774  15.099  14.851  0.4180 -0.6730  0.2523
 2454UDC     C226985   8.838  15.131  14.718 -0.0043  0.5507  0.0212
 2454UDC     C326986   8.954  15.014  14.692  0.2026  0.9403  0.2131
 2454UDC     C426987   9.022  15.016  14.557  0.5605 -1.4671  0.0360
 2454UDC     C526988   9.129  14.903  14.541 -0.1606 -1.5472  0.7719
 2454UDC     C626989   9.193  14.886  14.403  0.0420  0.0811 -1.1164
 2454UDC     C726990   9.285  14.999  14.357 -0.3539  0.4736 -0.0126
 2454UDC     C826991   9.228  15.089  14.246  0.6781 -0.8994  0.2449
 2454UDC     C926992   9.320  15.181  14.152  1.1325 -0.2488 -0.5326
 2454UDC    C1026993   9.378  15.300  14.227 -0.3257 -0.9527 -0.0989
 2454UDC    C1126994   9.260  15.391  14.274  0.3274 -0.8170 -0.9220
 2455UDC     C126995   0.234  16.562   4.283 -0.7864 -0.1804 -0.1585
 2455UDC     C226996   0.148  16.501   4.170  0.0098 -0.1105 -0.5047
 2455UDC     C326997   0.141  16.614   4.066  0.1992  0.3489 -0.4156
 2455UDC     C426998   0.213  16.555   3.937 -1.0362 -0.0989  0.4451
 2455UDC     C526999   0.190  16.408   3.910 -0.9676 -0.2014 -0.1773
 2455UDC     C627000   0.225  16.387   3.763  0.6242  0.4881  0.3348
 2455UDC     C727001   0.235  16.242   3.716 -0.5737  0.4339  0.6109
 2455UDC     C827002   0.361  16.200   3.641  0.3329  0.3969  0.0406
 2455UDC     C927003   0.494  16.178   3.714  0.4916  1.1291  0.4801
 2455UDC    C1027004   0.612  16.172   3.611  0.8216  0.0063 -0.6770
 2455UDC    C1127005   0.741  16.153   3.688  0.7355 -0.7386 -0.4583
 2456UDC     C127006  13.360  13.472   8.574 -0.5109 -0.4296  0.6353
 2456UDC     C227007  13.255  13.524   8.478 -0.5310  0.2108  0.6114
 2456UDC     C327008  13.146  13.607   8.547  0.2312  0.0940  0.4364
 2456UDC     C427009  13.079  13.512   8.646 -0.2494 -0.9030 -0.7282
 2456UDC     C527010  12.977  13.571   8.747  1.0984 -0.3246  1.3675
 2456UDC     C627011  13.025  13.654   8.867 -0.0868 -0.1983 -0.3535
 2456UDC     C727012  12.907  13.726   8.938 -0.5884 -0.0717  0.7996
 2456UDC     C827013  12.953  13.794   9.070  0.0648 -0.7311  1.0688
 2456UDC     C927014  12.870  13.707   9.175 -0.7215 -0.2475 -1.1816
 2456UDC    C1027015  12.731  13.658   9.131  0.6006  1.3515  0.1116
 2456UDC    C1127016  12.613  13.719   9.198  0.2421 -0.3277 -0.2844
 2457UDC     C127017  17.991   4.259  10.054 -0.8846  1.4412 -0.2141
 2457UDC     C227018  17.903   4.138  10.081 -0.3390 -0.0448  0.5908
 2457UDC     C327019  17.761   4.175  10.047  0.0489 -0.8363 -0.6088
 2457UDC     C427020  17.682   4.288  10.121  0.8558  0.4730 -0.5110
 2457UDC     C527021  17.547   4.326  10.058  0.6441  0.7322 -0.1117
 2457UDC     C627022  17.546   4.382   9.907  0.9214 -0.4285 -0.0217
 2457UDC     C727023  17.395   4.406   9.875 -0.5520 -0.1514 -0.2883
 2457UDC     C827024  17.364   4.460   9.735  0.0005  0.2581  0.8676
 2457UDC     C927025  17.287   4.355   9.649  0.3582  0.9740 -0.0957
 2457UDC    C1027026  17.277   4.390   9.499 -0.5065 -0.2772  0.1241
 2457UDC    C1127027  17.173   4.501   9.472  0.5458 -0.8580 -0.4129
 2458UDC     C127028   4.486   4.332  17.424  0.3474  0.2325 -0.0597
 2458UDC     C227029   4.402   4.415  17.327 -0.4755 -0.4931  0.1651
 2458UDC     C327030   4.467   4.513  17.222 -0.3332 -0.2836 -0.0926
 2458UDC     C427031   4.369   4.571  17.130 -0.2121 -0.1893  0.8384
 2458UDC     C527032   4.421   4.690  17.048 -1.0815  0.2301  0.2635
 2458UDC     C627033   4.326   4.730  16.930  1.3485 -0.1738 -0.2739
 2458UDC     C727034   4.327   4.605  16.835  0.4587 -0.3338  0.7093
 2458UDC     C827035   4.241   4.623  16.708  0.3413  1.0599  0.8753
 2458UDC     C927036   4.279   4.514  16.606  1.0853 -1.1047 -0.7670
 2458UDC    C1027037   4.281   4.369  16.656 -0.6259 -0.4558 -0.3510
 2458UDC    C1127038   4.316   4.277  16.546 -0.6910  0.2133  0.2329
 2459UDC     C127039   0.442   1.564  14.362 -1.0332  0.0704 -0.2589
 2459UDC     C227040   0.528   1.635  14.255  0.3517  0.5491  0.4963
 2459UDC     C327041   0.574   1.552  14.140 -0.4447  0.4336 -0.8741
 2459UDC     C427042   0.600   1.628  14.011 -0.0260  0.7455 -0.2845
 2459UDC     C527043   0.670   1.528  13.923 -0.2007 -0.4108  1.0648
 2459UDC     C627044   0.633   1.567  13.774 -0.0434  0.3218 -0.4655
 2459UDC     C727045   0.635   1.463  13.665 -0.2105  0.4183  0.4150
 2459UDC     C827046   0.755   1.493  13.576 -0.4031 -0.5826  0.4583
 2459UDC     C927047   0.805   1.382  13.483  0.4479  0.1166 -1.0059
 2459UDC    C1027048   0.862   1.432  13.354 -0.1068  0.1933  0.4075
 2459UDC    C1127049   0.878   1.587  13.368 -1.2735 -0.6143  0.8866
 2460UDC     C127050  13.376   8.040  15.031  1.1612 -0.6861  0.2063
 2460UDC     C227051  13.255   8.007  14.938 -0.0486 -0.1966 -0.3493
 2460UDC     C327052  13.174   7.892  14.989  0.8063 -0.6047  0.2777
 2460UDC     C427053  13.087   7.801  14.900  0.0088 -1.7264  0.3067
 2460UDC     C527054  13.099   7.656  14.932  0.7678 -0.0525 -0.0866
 2460UDC     C627055  13.119   7.584  14.794 -0.6684  1.5907 -0.3157
 2460UDC     C727056  12.987   7.611  14.720  0.6681  0.1668  0.3705
 2460UDC     C827057  12.858   7.523  14.705  0.8733  0.8186 -0.4030
 2460UDC     C927058  12.774   7.508  14.573  0.1201  0.6160 -0.6587
 2460UDC    C1027059  12.690   7.639  14.556 -0.5113 -0.0799  0.3233
 2460UDC    C1127060  12.703   7.716  14.430 -0.0851  0.2323  0.0649
 2461UDC     C127061   1.682  12.202   8.510  0.0187 -0.2872 -0.2536
 2461UDC     C227062   1.836  12.243   8.513  0.2637  0.1446 -1.1372
 2461UDC     C327063   1.858  12.397   8.519 -0.1721 -0.3637 -0.5595
 2461UDC     C427064   2.014  12.418   8.522 -0.5338  0.2845  0.3058
 2461UDC     C527065   2.059  12.561   8.501 -0.3161 -0.3606  0.4000
 2461UDC     C627066   2.134  12.572   8.367 -0.5160  0.1250 -0.3163
 2461UDC     C727067   2.055  12.501   8.253  0.6923  0.2337  1.0850
 2461UDC     C827068   2.132  12.530   8.123  0.8292 -0.4160  1.1753
 2461UDC     C927069   2.114  12.675   8.087  0.2561  0.5571 -0.5548
 2461UDC    C1027070   2.187  12.727   7.968  0.3365  0.1775  0.1315
 2461UDC    C1127071   2.334  12.701   7.971  1.2840  0.5365  0.9596
 2462UDC     C127072   6.670  19.470   0.781  1.2871  0.5264  0.3939
 2462UDC     C227073   6.578  19.571   0.855 -0.1994 -0.1494 -0.7429
 2462UDC     C327074   6.458  19.642   0.780 -0.3598  0.2223 -0.2683
 2462UDC     C427075   6.318  19.599   0.815  1.0603  0.0229  0.2109
 2462UDC     C527076   6.202  19.675   0.744 -0.2277 -0.3073  0.5039
 2462UDC     C627077   6.226  19.721   0.594  0.7820 -0.4192 -0.3235
 2462UDC     C727078   6.095  19.770   0.525  0.3353  0.2652  0.6595
 2462UDC     C827079   6.082  19.917   0.542 -0.3191 -0.9204 -0.7248
 2462UDC     C927080   5.940  19.964   0.523 -0.7279  0.9762  1.1121
 2462UDC    C1027081   5.879  19.923   0.385  0.4355 -0.1968  0.5167
 2462UDC    C1127082   5.723  19.927   0.373 -0.2267 -0.2695 -0.3104
 2463UDC     C127083   4.496   0.707  17.080 -0.1007 -0.4686 -0.2984
 2463UDC     C227084   4.592   0.746  17.199  0.3092 -0.7604  0.5392
 2463UDC     C327085   4.574   0.898  17.209 -0.4974  0.4465  0.5728
 2463UDC     C427086   4.639   0.963  17.078 -0.3931  0.0752  0.9181
 2463UDC     C527087   4.568   1.095  17.043  0.9375 -0.3937 -0.1686
 2463UDC     C627088   4.449   1.129  17.137  0.5575 -0.4946  0.7124
 2463UDC     C727089   4.423   1.280  17.154  0.6421 -0.8557  0.3744
 2463UDC     C827090   4.359   1.348  17.033  0.4226 -0.5827 -0.9001
 2463UDC     C927091   4.316   1.494  17.050 -0.3844  0.5204  0.1864
 2463UDC    C1027092   4.295   1.587  16.933 -0.0848 -1.9242  0.5223
 2463UDC    C1127093   4.210   1.706  16.983  0.2745  0.0506 -0.1370
 2464UDC     C127094  11.709   7.525   7.440 -0.7575  0.3764 -0.2674
 2464UDC     C227095  11.802   7.498   7.567 -0.4550  0.0860  0.5062
 2464UDC     C327096  11.944   7.512   7.522 -0.0511 -0.0828 -0.0444
 2464UDC     C427097  11.984   7.653   7.479  0.6831 -0.6783 -0.4192
 2464UDC     C527098  12.129   7.671   7.427 -0.3912 -0.2942  0.5073
 2464UDC     C627099  12.151   7.819   7.397 -1.0874  1.4166 -0.4439
 2464UDC     C727100  12.276   7.850   7.314 -0.3808 -0.3791  0.3980
 2464UDC     C827101  12.416   7.811   7.375  0.5167 -0.0473  0.6918
 2464UDC     C927102  12.476   7.889   7.500 -0.5386  0.3868 -1.0641
 2464UDC    C1027103  12.628   7.868   7.489 -0.1627  0.2992  0.0501
 2464UDC    C1127104  12.700   7.947   7.604  0.0298  0.5385  1.0927
 2465UDC     C127105   3.935  15.461  19.735  0.8479  0.4450  0.3317
 2465UDC     C227106   3.864  15.578  19.814 -0.0278 -0.5096  0.0848
 2465UDC     C327107   3.779  15.646  19.712  0.6988  0.9729 -0.1239
 2465UDC     C427108   3.744  15.549  19.599  0.8525  0.8142  0.1055
 2465UDC     C527109   3.633  15.598  19.500  0.2949 -0.0311  0.3200
 2465UDC     C627110   3.510  15.643  19.583 -0.0894 -0.1040  0.2037
 2465UDC     C727111   3.374  15.670  19.504 -0.2061 -0.2487 -0.6698
 2465UDC     C827112   3.344  15.544  19.418  0.8151 -0.4450 -0.2204
 2465UDC     C927113   3.265  15.581  19.296  0.4294 -0.6327  0.1368
 2465UDC    C1027114   3.205  15.468  19.213  1.0955 -0.3983 -0.0020
 2465UDC    C1127115   3.158  15.339  19.281 -0.5685 -0.3034  0.8495
 2466UDC     C127116  10.738  14.476  17.007  0.6291  0.4799  1.0202
 2466UDC     C227117  10.790  14.617  17.025  1.3752 -0.5232  1.0235
 2466UDC     C327118  10.759  14.712  16.902  0.7021  0.9625 -0.0755
 2466UDC     C427119  10.814  14.854  16.927 -0.5697  0.6324  0.1801
 2466UDC     C527120  10.782  14.931  16.798  0.4032  0.4370 -0.5998
 2466UDC     C627121  10.829  14.861  16.671 -1.1907  0.6832  0.2736
 2466UDC     C727122  10.773  14.921  16.544 -0.2652  0.3563  0.5380
 2466UDC     C827123  10.792  14.828  16.424  0.1339  0.7030 -0.3739
 2466UDC     C927124  10.702  14.704  16.426  0.7629  0.0162  1.2172
 2466UDC    C1027125  10.621  14.696  16.294 -0.4282 -0.5096  0.5096
 2466UDC    C1127126  10.592  14.570  16.208 -1.1563  0.4375 -0.8039
 2467UDC     C127127  18.813  13.424   6.898  0.5963 -0.8131  0.4213
 2467UDC     C227128  18.669  13.463   6.930 -0.4794 -1.3908 -0.9258
 2467UDC     C327129  18.661  13.549   7.061 -0.2353 -0.4223  0.4983
 2467UDC     C427130  18.738  13.477   7.174 -0.8750 -0.3176  0.7674
 2467UDC     C527131  18.786  13.568   7.289  0.3076 -0.5601 -0.4410
 2467UDC     C627132  18.849  13.690   7.226  0.3013 -0.7768 -0.0082
 2467UDC     C727133  18.902  13.800   7.311  0.2674 -0.2365  0.0651
 2467UDC     C827134  18.967  13.754   7.444  0.0625 -0.4850 -0.6514
 2467UDC     C927135  19.074  13.861   7.479 -1.1547 -0.3421  1.2189
 2467UDC    C1027136  19.143  13.785   7.581 -0.0826  0.3496 -0.0986
 2467UDC    C1127137  19.299  13.765   7.570  0.2727  0.7020  0.6182
 2468UDC     C127138  15.519  19.922  13.622  1.0053  1.0211 -0.5283
 2468UDC     C227139  15.474  20.063  13.589  0.1257  0.2198  0.9479
 2468UDC     C327140  15.441  20.099  13.440  1.1439 -0.7759 -0.1848
 2468UDC     C427141  15.484  20.246  13.419  0.5002 -1.0774 -0.2248
 2468UDC     C527142  15.371  20.324  13.348 -0.0023 -0.2344  0.5246
 2468UDC     C627143  15.299  20.421  13.432 -0.3035 -0.5426 -0.7387
 2468UDC     C727144  15.381  20.539  13.479 -0.2030  0.7290 -0.6558
 2468UDC     C827145  15.341  20.615  13.609 -0.1115  0.6348  0.2926
 2468UDC     C927146  15.206  20.689  13.606 -0.3850  0.8311 -0.2266
 2468UDC    C1027147  15.177  20.750  13.746  0.2683  0.7255 -0.0366
 2468UDC    C1127148  15.255  20.873  13.791  0.9358 -0.2259 -0.5852
 2469UDC     C127149  18.631   1.740  15.741 -0.2281  0.6844  0.0132
 2469UDC     C227150  18.739   1.672  15.831  1.3293  1.1013  0.1427
 2469UDC     C327151  18.766   1.523  15.802 -0.1500 -0.3790 -0.1842
 2469UDC     C427152  18.865   1.490  15.911 -0.9909  0.4152 -0.0038
 2469UDC     C527153  18.815   1.468  16.047 -0.1616 -0.7481 -0.5788
 2469UDC     C627154  18.910   1.484  16.167  0.0934  0.6876  0.2011
 2469UDC     C727155  19.029   1.382  16.156  1.5643 -1.4915  0.2272
 2469UDC     C827156  19.171   1.433  16.184 -0.0988 -0.7445 -0.1300
 2469UDC     C927157  19.190   1.492  16.323 -1.4267 -0.5315 -0.3726
 2469UDC    C1027158  19.333   1.508  16.376  0.1598 -0.0855 -0.1297
 2469UDC    C1127159  19.396   1.404  16.469  0.0585  0.1075 -0.6961
 2470UDC     C127160   6.311   2.809   2.274 -0.7632  0.6320 -0.1432
 2470UDC     C227161   6.459   2.828   2.225  0.3311  0.9921 -0.1243
 2470UDC     C327162   6.460   2.769   2.080  0.4652 -1.0415  0.3785
 2470UDC     C427163   6.356   2.834   1.990 -0.3503 -0.2672 -0.0160
 2470UDC     C527164   6.410   2.851   1.849 -1.0668  0.4522 -0.1673
 2470UDC     C627165   6.395   2.710   1.789  0.5036 -1.0267 -0.2827
 2470UDC     C727166   6.336   2.691   1.647 -0.6267 -1.2073  0.6502
 2470UDC     C827167   6.320   2.553   1.595 -0.3264  0.0251 -0.0218
 2470UDC     C927168   6.179   2.507   1.551 -0.0405  0.2530 -0.7478
 2470UDC    C1027169   6.089   2.504   1.682 -0.4234 -0.2888  0.4777
 2470UDC    C1127170   5.942   2.485   1.638  0.1322 -0.5154 -0.1064
 2471UDC     C127171  18.893   6.628  16.894  0.1251 -0.7555 -0.2227
 2471UDC     C227172  18.986   6.588  16.787 -0.9621 -1.2238  0.7889
 2471UDC     C327173  19.108   6.675  16.781 -0.3371  0.4981 -0.0263
 2471UDC     C427174  19.169   6.656  16.639  0.6560 -0.3498  0.2854
 2471UDC     C527175  19.170   6.506  16.597 -0.9698 -0.6990  0.6302
 2471UDC     C627176  19.298   6.478  16.512  0.0082  0.1488  0.1959
 2471UDC     C727177  19.316   6.331  16.474  0.0590  0.5281 -0.7042
 2471UDC     C827178  19.271   6.239  16.584 -0.3828  0.5126  0.7420
 2471UDC     C927179  19.277   6.093  16.540  0.0575  1.2193  1.2915
 2471UDC    C1027180  19.186   6.014  16.639  0.1749 -0.4128  0.2753
 2471UDC    C1127181  19.149   5.868  16.589 -0.0184  0.3189  0.6037
 2472UDC     C127182  14.344  10.771  14.289  0.2233 -0.0713  0.2698
 2472UDC     C227183  14.305  10.900  14.368  0.3659  0.2497  0.0172
 2472UDC     C327184  14.344  10.910  14.517  1.2854  0.7133 -0.0490
 2472UDC     C427185  14.333  11.042  14.600 -0.2039 -0.7217 -0.5716
 2472UDC     C527186  14.347  11.176  14.536 -1.0231  0.2347 -0.0114
 2472UDC     C627187  14.486  11.210  14.477  1.2554 -1.0314 -0.1954
 2472UDC     C727188  14.502  11.358  14.432 -0.5593 -0.7813  0.4385
 2472UDC     C827189  14.652  11.377  14.449 -0.6687  0.1213 -0.8517
 2472UDC     C927190  14.683  11.364  14.599 -1.4042 -0.4805 -0.0799
 2472UDC    C1027191  14.835  11.409  14.631 -0.7612  1.0603  0.1286
 2472UDC    C1127192  14.887  11.416  14.773  0.0943 -0.2123 -1.2007
 2473UDC     C127193   3.780  18.165  10.006 -0.1134 -0.4214  0.5965
 2473UDC     C227194   3.695  18.047  10.068  0.3673 -0.9340 -0.4442
 2473UDC     C327195   3.712  18.062  10.224 -0.2352  0.2308  0.4235
 2473UDC     C427196   3.841  18.027  10.294 -0.4524 -0.0903  0.2325
 2473UDC     C527197   3.847  17.989  10.442 -0.6517  0.1011  0.1245
 2473UDC     C627198   3.989  17.934  10.483 -0.1883  0.1076  0.1622
 2473UDC     C727199   4.004  17.891  10.631  1.0618  0.0661  0.0968
 2473UDC     C827200   4.016  18.008  10.735  0.6618 -0.3215 -0.2431
 2473UDC     C927201   3.872  18.068  10.775  0.1901  0.1734 -0.3194
 2473UDC    C1027202   3.899  18.218  10.789  0.5097 -0.3187 -0.6892
 2473UDC    C1127203   3.836  18.242  10.928  0.1290  0.0475 -1.6319
 2474UDC     C127204  19.458  16.738  16.780  0.3420 -0.3179 -0.6504
 2474UDC     C227205  19.436  16.617  16.693 -1.8117  0.6290 -0.2956
 2474UDC     C327206  19.323  16.636  16.592 -0.2284 -0.7266 -0.4387
 2474UDC     C427207  19.369  16.687  16.460  0.4665 -0.7708 -0.5499
 2474UDC     C527208  19.440  16.825  16.436 -0.5402 -0.1432 -0.8529
 2474UDC     C627209  19.358  16.949  16.468 -0.4034 -0.5044 -0.3412
 2474UDC     C727210  19.350  17.025  16.601  0.3721  0.4778  0.2288
 2474UDC     C827211  19.296  17.166  16.580 -0.2360  0.3502 -0.4312
 2474UDC     C927212  19.283  17.239  16.715  0.3960 -0.5691 -0.1457
 2474UDC    C1027213  19.239  17.381  16.693  0.3502 -0.7170  0.5858
 2474UDC    C1127214  19.106  17.394  16.617  0.9104  0.4138 -0.6357
 2475UDC     C127215   1.525   0.114  16.383 -0.3216 -1.0775 -0.6901
 2475UDC     C227216   1.568  -0.011  16.463  0.3608 -0.0510 -0.0244
 2475UDC     C327217   1.538  -0.152  16.412  0.5895  0.3550  0.4758
 2475UDC     C427218   1.545  -0.251  16.523  0.1349 -0.0919 -0.4511
 2475UDC     C527219   1.407  -0.257  16.605 -0.7800 -0.2441  0.3342
 2475UDC     C627220   1.415  -0.334  16.733 -0.1252 -0.4458 -0.7709
 2475UDC     C727221   1.482  -0.474  16.712  0.3591 -0.7946  0.2143
 2475UDC     C827222   1.403  -0.565  16.603  0.4755  0.0424 -0.2980
 2475UDC     C927223   1.332  -0.679  16.673 -1.3099 -0.8605  0.9519
 2475UDC    C1027224   1.277  -0.784  16.573 -0.2121  1.0046 -0.7552
 2475UDC    C1127225   1.265  -0.917  16.654 -0.1890  0.6580  1.0507
 2476UDC     C127226  10.022   9.035  13.551 -0.0777  0.3118  0.6161
 2476UDC     C227227   9.962   9.125  13.436 -0.4982  0.7730 -0.1896
 2476UDC     C327228   9.943   9.057  13.303 -0.7013  0.3904 -0.0632
 2476UDC     C427229  10.044   9.121  13.209  0.0356 -0.7332 -0.4536
 2476UDC     C527230  10.034   9.267  13.170 -0.1109 -0.4107  0.8084
 2476UDC     C627231  10.136   9.332  13.067  0.6313 -0.4195 -0.1032
 2476UDC     C727232  10.084   9.384  12.930  0.0029 -0.1447  0.8331
 2476UDC     C827233  10.087   9.263  12.832 -0.0363  0.9708 -0.0129
 2476UDC     C927234  10.071   9.290  12.677 -0.8211 -1.0434 -0.1821
 2476UDC    C1027235  10.144   9.419  12.641 -1.0001 -0.3493 -0.2232
 2476UDC    C1127236  10.131   9.490  12.502  0.7017 -0.5515  0.5920
 2477UDC     C127237   8.477   5.662   9.962 -0.1164 -0.9578 -0.1640
 2477UDC     C227238   8.416   5.725   9.831  0.0486 -0.7070 -0.4868
 2477UDC     C327239   8.504   5.752   9.709  0.3526  0.7830  0.8039
 2477UDC     C427240   8.463   5.874   9.624 -0.3586  0.0813  0.8699
 2477UDC     C527241   8.538   5.881   9.494 -0.3995 -0.0360  0.3341
 2477UDC     C627242   8.690   5.884   9.502 -0.1627 -0.3005 -0.4592
 2477UDC     C727243   8.754   6.002   9.429 -0.9697  0.1099 -1.5398
 2477UDC     C827244   8.902   5.960   9.430 -0.2221  0.2271  0.4213
 2477UDC     C927245   8.912   5.835   9.350 -0.9403 -0.4907  0.3793
 2477UDC    C1027246   9.056   5.795   9.326  0.1181 -1.1431  0.0195
 2477UDC    C1127247   9.114   5.787   9.183  0.9952  0.6446 -0.4100
 2478UDC     C127248   8.569   8.973   3.357 -0.1580  0.8164  1.1674
 2478UDC     C227249   8.522   8.851   3.435 -0.3647 -0.0301 -0.0073
 2478UDC     C327250   8.515   8.710   3.380 -1.3289  0.5306  0.7329
 2478UDC     C427251   8.377   8.648   3.358 -0.1338 -1.1204  0.8917
 2478UDC     C527252   8.381   8.502   3.369 -0.9460  0.3442 -1.2151
 2478UDC     C627253   8.437   8.441   3.503 -0.4467  0.0985  0.9040
 2478UDC     C727254   8.364   8.476   3.638  0.3733 -0.0255 -0.7606
 2478UDC     C827255   8.209   8.476   3.615  0.4263  0.5572 -0.6877
 2478UDC     C927256   8.121   8.571   3.704  0.0140 -0.7132 -0.8322
 2478UDC    C1027257   7.985   8.508   3.691 -0.7237  0.2757 -0.3359
 2478UDC    C1127258   7.872   8.530   3.789  0.4539  0.4975  0.3888
 2479UDC     C127259   5.929   9.163   8.088 -0.3123  0.0199  0.2614
 2479UDC     C227260   5.868   9.161   7.946 -0.7256 -1.0329  0.0101
 2479UDC     C327261   5.719   9.136   7.962 -0.8879 -0.6545  0.6107
 2479UDC     C427262   5.631   9.126   7.830 -0.4752  0.6809 -0.2029
 2479UDC     C527263   5.603   9.256   7.753 -0.7566  0.0779  0.3758
 2479UDC     C627264   5.564   9.374   7.843 -0.5480  0.3884 -0.0342
 2479UDC     C727265   5.539   9.510   7.780 -0.0952  0.0529 -0.6501
 2479UDC     C827266   5.484   9.614   7.881 -0.3782  0.5493 -0.3950
 2479UDC     C927267   5.392   9.720   7.825 -0.5694  1.3884 -0.3437
 2479UDC    C1027268   5.236   9.708   7.839 -0.4397  0.0336 -0.2555
 2479UDC    C1127269   5.146   9.834   7.808 -0.1809 -0.5903 -0.2342
 2480UDC     C127270  15.623  16.674  17.045 -0.0475 -0.2156  0.5448
 2480UDC     C227271  15.673  16.754  17.165  0.1547 -0.6192 -0.5810
 2480UDC     C327272  15.574  16.855  17.234 -2.0119 -0.3649 -0.5093
 2480UDC     C427273  15.539  16.983  17.145 -0.1213  0.5795  0.2474
 2480UDC     C527274  15.638  17.097  17.166 -1.2303  0.4907 -0.9107
 2480UDC     C627275  15.576  17.233  17.169  0.0523 -0.2460 -0.8636
 2480UDC     C727276  15.479  17.240  17.279  0.5727  0.0626 -0.3913
 2480UDC     C827277  15.428  17.388  17.298 -1.0273 -0.0675 -0.6881
 2480UDC     C927278  15.513  17.503  17.346 -1.1908 -0.0299 -0.8814
 2480UDC    C1027279  15.437  17.639  17.366 -0.5178  0.2501 -0.1608
 2480UDC    C1127280  15.383  17.686  17.239  0.5667 -0.6429  0.2356
 2481UDC     C127281   1.117   3.706   6.732  0.6240 -0.4208 -0.1030
 2481UDC     C227282   1.020   3.581   6.750 -0.0921 -0.7058  0.5015
 2481UDC     C327283   0.887   3.606   6.667 -1.0065 -0.2361 -0.3733
 2481UDC     C427284   0.907   3.626   6.519  0.2018  1.6693  0.0277
 2481UDC     C527285   0.802   3.545   6.441 -0.3851 -0.2328  1.0086
 2481UDC     C627286   0.738   3.423   6.515 -0.2141  0.4424 -1.1735
 2481UDC     C727287   0.633   3.354   6.423  0.2828 -0.0671 -0.2977
 2481UDC     C827288   0.573   3.234   6.493  0.5812 -0.5919 -1.0517
 2481UDC     C927289   0.466   3.158   6.415  0.0807  0.5838  0.2001
 2481UDC    C1027290   0.417   3.017   6.467  0.0129 -0.0722  0.1234
 2481UDC    C1127291   0.293   2.969   6.390  0.4140  1.0287  0.2713
 2482UDC     C127292  14.789   5.025   2.584  1.4512  0.5986 -0.2607
 2482UDC     C227293  14.658   5.095   2.583  0.7561 -0.0721 -0.2232
 2482UDC     C327294  14.571   5.102   2.451 -0.6426 -0.5720  0.4385
 2482UDC     C427295  14.634   5.188   2.338  0.5010 -0.3059 -0.4141
 2482UDC     C527296  14.615   5.124   2.196  0.1441  0.1694 -1.1730
 2482UDC     C627297  14.471   5.079   2.187  0.4586  1.2147  0.3750
 2482UDC     C727298  14.400   5.161   2.073  0.4534 -0.5229 -0.1036
 2482UDC     C827299  14.473   5.222   1.953 -0.9021  0.0219  0.1899
 2482UDC     C927300  14.415   5.358   1.888  0.3377  0.0334 -0.3190
 2482UDC    C1027301  14.509   5.392   1.773  0.2456 -0.6016  1.2417
 2482UDC    C1127302  14.530   5.270   1.679  0.3144 -0.5724  0.0050
 2483UDC     C127303  12.209   8.909   7.237  0.3848  0.3889 -1.0389
 2483UDC     C227304  12.200   8.889   7.087 -0.7679  0.2278 -0.0328
 2483UDC     C327305  12.305   8.793   7.029  0.6018 -1.4555  0.5229
 2483UDC     C427306  12.272   8.662   7.094 -0.1668  1.0426  0.4494
 2483UDC     C527307  12.154   8.594   7.030  0.3813  0.6929  0.3206
 2483UDC     C627308  12.121   8.469   7.115 -1.3160 -0.1487 -0.5731
 2483UDC     C727309  12.207   8.352   7.076  1.0676  0.5259  0.4497
 2483UDC     C827310  12.136   8.223   7.035 -0.0564 -0.6622 -0.0132
 2483UDC     C927311  12.199   8.104   6.953  0.1900  0.7478 -0.9983
 2483UDC    C1027312  12.090   7.990   6.967 -0.0879 -0.2365  0.9928
 2483UDC    C1127313  12.056   7.877   6.869 -0.0174  0.5310 -0.7904
 2484UDC     C127314   5.448   2.459  15.123 -0.6148  0.0604  0.5382
 2484UDC     C227315   5.408   2.356  15.230 -0.5159  1.1140 -0.4063
 2484UDC     C327316   5.515   2.250  15.253 -0.2698 -0.2630  0.1904
 2484UDC     C427317   5.635   2.307  15.330 -0.2708  0.2229 -0.0660
 2484UDC     C527318   5.661   2.214  15.448 -1.5079 -1.5162 -0.0911
 2484UDC     C627319   5.735   2.274  15.571 -0.6987 -0.4563  1.2590
 2484UDC     C727320   5.623   2.323  15.667  0.2469  1.1192  0.9649
 2484UDC     C827321   5.662   2.453  15.743 -0.1363 -0.8879  2.1627
 2484UDC     C927322   5.639   2.591  15.663  0.1046  0.2241  0.5361
 2484UDC    C1027323   5.725   2.693  15.727 -1.3176  0.1020 -0.2903
 2484UDC    C1127324   5.729   2.835  15.657 -0.5599 -0.7250  1.4461
 2485UDC     C127325   4.491   4.091  11.869 -0.5930 -0.1726 -0.4785
 2485UDC     C227326   4.389   4.156  11.963 -0.8322 -0.4813  0.4850
 2485UDC     C327327   4.247   4.105  11.987 -0.3676 -0.8470 -0.4955
 2485UDC     C427328   4.243   3.957  12.023 -0.3749 -0.5731  0.1126
 2485UDC     C527329   4.300   3.922  12.158 -0.7601 -0.6421 -0.4095
 2485UDC     C627330   4.301   3.767  12.156  0.7771  0.5661  0.9124
 2485UDC     C727331   4.366   3.714  12.282 -0.1805  0.1757 -0.6751
 2485UDC     C827332   4.349   3.564  12.325 -0.7058 -0.4060 -0.2808
 2485UDC     C927333   4.215   3.541  12.392 -0.2272 -0.2438 -0.8267
 2485UDC    C1027334   4.178   3.396  12.428 -0.2791 -0.5246 -0.2044
 2485UDC    C1127335   4.036   3.369  12.485  0.3342  0.8223 -0.4825
 2486UDC     C127336   1.671   6.894   6.223 -0.5999 -0.1631 -0.7749
 2486UDC     C227337   1.698   6.757   6.287 -0.7936 -0.0349 -0.5640
 2486UDC     C327338   1.724   6.628   6.203  0.0431 -0.9354 -0.9914
 2486UDC     C427339   1.613   6.576   6.105 -0.1129 -0.9339 -1.1255
 2486UDC     C527340   1.656   6.444   6.024  0.0948 -0.9878 -0.9292
 2486UDC     C627341   1.545   6.364   5.950 -0.3720 -0.1551  0.3003
 2486UDC     C727342   1.607   6.247   5.877 -1.6148  0.8620 -0.0186
 2486UDC     C827343   1.618   6.140   5.989 -0.7117 -0.5221  0.4307
 2486UDC     C927344   1.656   5.986   5.960 -0.8914  0.0122 -0.4493
 2486UDC    C1027345   1.717   5.903   6.076 -0.4914 -0.9127 -0.3729
 2486UDC    C1127346   1.808   5.786   6.022 -0.5496  0.2079 -0.8539
 2487UDC     C127347   2.104   7.720  14.908 -0.5696  0.3908 -0.7109
 2487UDC     C227348   1.970   7.643  14.925 -0.0075 -0.1661 -0.5182
 2487UDC     C327349   1.933   7.529  14.838 -0.4785 -0.9477  0.1112
 2487UDC     C427350   1.820   7.445  14.889 -0.3846 -1.1163 -1.4688
 2487UDC     C527351   1.710   7.441  14.787 -1.3131 -1.4463  1.4323
 2487UDC     C627352   1.583   7.390  14.849 -0.1441 -0.6878  1.0889
 2487UDC     C727353   1.607   7.357  14.992 -0.4645  0.8747  1.1723
 2487UDC     C827354   1.529   7.235  15.047  0.1744  0.6465 -0.0164
 2487UDC     C927355   1.528   7.221  15.205  0.1809  0.1385  0.1289
 2487UDC    C1027356   1.473   7.103  15.288  0.3445 -0.3503  0.3096
 2487UDC    C1127357   1.523   7.084  15.427  1.4637 -0.0232 -0.9066
 2488UDC     C127358  15.179   3.217   9.494  0.4386  1.6411 -0.0162
 2488UDC     C227359  15.263   3.204   9.619 -0.2925  0.1705  1.0468
 2488UDC     C327360  15.242   3.076   9.699 -0.6615 -0.2757 -0.5285
 2488UDC     C427361  15.354   3.048   9.799 -0.3453 -0.7706 -0.1803
 2488UDC     C527362  15.380   3.117   9.936  0.0292  0.8391 -0.0070
 2488UDC     C627363  15.276   3.082  10.044  0.6977 -0.2068  0.2118
 2488UDC     C727364  15.321   3.123  10.179  0.1567 -0.2671 -0.8382
 2488UDC     C827365  15.277   3.037  10.305 -0.1577  1.0628  0.2738
 2488UDC     C927366  15.136   3.074  10.353 -0.8053 -1.0626  0.0296
 2488UDC    C1027367  15.087   3.045  10.494  0.6165 -0.0269  1.0989
 2488UDC    C1127368  15.101   2.899  10.563 -0.5118 -0.4384  0.3348
 2489UDC     C127369  13.505  15.552  17.862  0.0308  0.1503 -0.6413
 2489UDC     C227370  13.472  15.416  17.932 -0.1009 -0.8404 -0.3337
 2489UDC     C327371  13.329  15.407  17.981  0.8046  0.0071  0.5033
 2489UDC     C427372  13.329  15.290  18.078  0.5335 -0.2577  1.1554
 2489UDC     C527373  13.207  15.284  18.171  0.8056  0.5534 -0.8073
 2489UDC     C627374  13.190  15.165  18.264 -0.7568  0.7165 -0.1238
 2489UDC     C727375  13.082  15.180  18.372  0.6089  0.5873  1.0499
 2489UDC     C827376  13.096  15.078  18.489  0.1516  0.7617  0.9143
 2489UDC     C927377  13.001  15.104  18.603 -0.1158 -0.3882 -0.0961
 2489UDC    C1027378  13.020  15.251  18.655  0.2935 -0.8220  0.1366
 2489UDC    C1127379  13.007  15.250  18.808  0.0352  0.1307  0.7804
 2490UDC     C127380  15.194  10.501   1.346 -0.0022 -0.1326 -0.2200
 2490UDC     C227381  15.201  10.356   1.381  0.6630  0.1164 -0.5097
 2490UDC     C327382  15.307  10.272   1.307 -0.2044  0.5373  0.5497
 2490UDC     C427383  15.308  10.119   1.347  1.3544  0.0994 -0.4716
 2490UDC     C527384  15.408  10.036   1.267  0.1571  0.1640 -0.9586
 2490UDC     C627385  15.555  10.077   1.305  0.4428 -0.2160 -0.0263
 2490UDC     C727386  15.647   9.972   1.251  0.3468  0.2453  0.4297
 2490UDC     C827387  15.792   9.994   1.287  0.0206 -0.8807  0.4296
 2490UDC     C927388  15.896   9.880   1.246  0.0797 -0.0416  0.9072
 2490UDC    C1027389  15.874   9.751   1.317  0.3453  0.1613 -0.9310
 2490UDC    C1127390  15.869   9.756   1.468 -0.4073  0.1728  0.2298
 2491UDC     C127391   4.355   4.830   7.236  1.0217  0.0422 -0.3959
 2491UDC     C227392   4.495   4.884   7.284  0.3567 -0.7166 -0.4827
 2491UDC     C327393   4.548   4.991   7.182  0.3817  0.0294  0.2103
 2491UDC     C427394   4.675   5.047   7.239  0.4399 -0.3885  0.6329
 2491UDC     C527395   4.712   5.188   7.180 -0.3224 -0.5537 -0.1430
 2491UDC     C627396   4.580   5.270   7.138  0.8414 -1.3147 -0.7290
 2491UDC     C727397   4.597   5.417   7.096  0.0158 -0.2583 -0.1175
 2491UDC     C827398   4.678   5.498   7.196 -0.0022  0.3659 -0.0225
 2491UDC     C927399   4.655   5.645   7.159  0.7301 -1.0494 -0.2749
 2491UDC    C1027400   4.720   5.753   7.258  1.4301 -0.7058  1.1967
 2491UDC    C1127401   4.862   5.719   7.303 -0.6426 -0.8453 -0.0056
 2492UDC     C127402   4.862  10.786   3.536 -0.2924 -1.1383 -0.5640
 2492UDC     C227403   4.994  10.705   3.510  0.1369  0.0913 -0.7435
 2492UDC     C327404   5.081  10.758   3.624 -0.9620 -0.0826 -0.4735
 2492UDC     C427405   5.058  10.695   3.765  0.4147 -0.5605 -0.7057
 2492UDC     C527406   5.128  10.785   3.871  0.8807  0.1159  0.6564
 2492UDC     C627407   5.154  10.725   4.011  0.0581  0.3287  0.0850
 2492UDC     C727408   5.048  10.638   4.082  0.4786 -0.1009 -0.3804
 2492UDC     C827409   5.099  10.529   4.175 -0.1145 -1.3210  0.1795
 2492UDC     C927410   4.997  10.450   4.260 -0.6833 -0.5335 -0.7846
 2492UDC    C1027411   5.066  10.383   4.381  0.3867  0.2187 -1.3202
 2492UDC    C1127412   5.146  10.491   4.458  0.7970 -0.3962 -0.5393
 2493UDC     C127413   5.039  16.791   8.356 -0.6925 -0.6429  0.5735
 2493UDC     C227414   4.981  16.902   8.273  0.2052 -0.4639  0.4414
 2493UDC     C327415   4.836  16.949   8.276 -0.6153 -0.8336  0.3620
 2493UDC     C427416   4.801  17.062   8.380  1.2860 -1.1965  0.8428
 2493UDC     C527417   4.855  17.205   8.335  0.5802 -0.1120 -0.0435
 2493UDC     C627418   4.775  17.342   8.364  0.4408  0.2544 -0.8239
 2493UDC     C727419   4.872  17.457   8.346 -0.4691 -0.3852 -0.0155
 2493UDC     C827420   4.823  17.594   8.415 -0.2529  0.1369  0.4964
 2493UDC     C927421   4.726  17.667   8.328  0.3469 -0.7023 -0.6731
 2493UDC    C1027422   4.758  17.681   8.180  0.4667  0.7602  0.7414
 2493UDC    C1127423   4.646  17.761   8.103 -0.0803 -0.3333  0.1956
 2494UDC     C127424   1.213  13.700   6.858 -0.6130  0.0647 -0.9071
 2494UDC     C227425   1.171  13.795   6.744 -1.1177 -0.0427 -0.0195
 2494UDC     C327426   1.262  13.828   6.624 -0.5744 -0.1263  0.3952
 2494UDC     C427427   1.200  13.946   6.555 -1.0904 -0.9216  1.1371
 2494UDC     C527428   1.305  13.994   6.453  0.7166 -0.1957 -0.7256
 2494UDC     C627429   1.450  13.985   6.517  0.4200  0.1332  0.2223
 2494UDC     C727430   1.495  14.075   6.627  0.2108  0.1169  0.6074
 2494UDC     C827431   1.649  14.070   6.632  0.0979 -0.9850 -1.0707
 2494UDC     C927432   1.716  14.131   6.501  0.0937 -0.3371 -0.7701
 2494UDC    C1027433   1.729  14.279   6.494  0.9021  0.0874  0.0673
 2494UDC    C1127434   1.770  14.319   6.349  1.1639  0.3639 -0.4692
 2495UDC     C127435   0.873   7.835  17.701 -0.6089  0.3068  0.0018
 2495UDC     C227436   0.881   7.804  17.550 -0.1655 -0.0108 -0.7079
 2495UDC     C327437   0.895   7.664  17.495 -0.4150  0.6210 -0.6289
 2495UDC     C427438   0.900   7.648  17.346 -0.5524  0.4141 -0.8564
 2495UDC     C527439   1.007   7.704  17.250 -0.8221 -0.1274  0.0108
 2495UDC     C627440   1.036   7.594  17.148 -0.6653 -0.1998  0.3892
 2495UDC     C727441   1.171   7.601  17.081 -0.8115  0.4783  0.8325
 2495UDC     C827442   1.179   7.536  16.938  0.1432 -0.4749  0.1550
 2495UDC     C927443   1.237   7.399  16.914 -0.2943 -0.4847 -0.3175
 2495UDC    C1027444   1.356   7.406  16.813 -0.1462 -0.0623 -0.4854
 2495UDC    C1127445   1.380   7.256  16.799  0.1946 -0.1011 -0.4289
 2496UDC     C127446   7.313  14.530  18.892 -0.5047 -0.1988 -0.0814
 2496UDC     C227447   7.230  14.403  18.891 -0.1218 -0.0244 -1.4389
 2496UDC     C327448   7.083  14.438  18.915  0.2532  0.2694 -0.8893
 2496UDC     C427449   7.027  14.300  18.942 -0.4006  0.4495 -0.9111
 2496UDC     C527450   7.064  14.227  19.072 -0.1187  1.2558 -0.2556
 2496UDC     C627451   6.979  14.100  19.083  0.0273 -0.1064  0.1670
 2496UDC     C727452   7.019  13.979  18.994  0.0611 -0.0483  0.1827
 2496UDC     C827453   7.127  13.895  19.062 -0.7069  0.7109  0.7638
 2496UDC     C927454   7.203  13.804  18.953 -0.6329 -0.2542 -1.4075
 2496UDC    C1027455   7.107  13.703  18.899  0.3565  2.2707  0.0636
 2496UDC    C1127456   7.166  13.569  18.840 -0.7404 -0.7904  0.5370
 2497UDC     C127457   4.737  13.799   1.005 -1.2235  0.9269  0.5246
 2497UDC     C227458   4.771  13.683   0.909 -0.9588 -0.1814 -0.4915
 2497UDC     C327459   4.916  13.651   0.858  0.0244  0.8019  0.7357
 2497UDC     C427460   5.029  13.763   0.870  0.0399  0.4285 -0.5297
 2497UDC     C527461   5.110  13.756   0.994 -0.4222 -0.5816  0.0640
 2497UDC     C627462   5.104  13.605   1.035 -0.4855  0.5979  0.7705
 2497UDC     C727463   5.184  13.581   1.174  0.3456 -1.4935 -0.3222
 2497UDC     C827464   5.227  13.443   1.230  0.3202 -0.2129  1.0013
 2497UDC     C927465   5.117  13.337   1.258  0.0160  0.4710 -0.2314
 2497UDC    C1027466   5.019  13.333   1.146  0.7132  0.7124  0.7651
 2497UDC    C1127467   4.893  13.249   1.187 -0.0508 -0.8584 -0.0654
 2498UDC     C127468  16.402  10.826   1.737 -0.2302  0.7514 -0.4782
 2498UDC     C227469  16.342  10.966   1.773  0.6827  0.2731  1.1534
 2498UDC     C327470  16.192  10.971   1.755 -0.2178 -0.4924  0.6834
 2498UDC     C427471  16.150  11.116   1.780 -0.1620  0.3625 -0.1420
 2498UDC     C527472  16.205  11.224   1.682 -1.9411  0.7116  0.7892
 2498UDC     C627473  16.127  11.346   1.644  0.4258  0.6317 -0.1597
 2498UDC     C727474  16.218  11.458   1.590  0.2789 -0.5887 -1.0652
 2498UDC     C827475  16.330  11.509   1.679 -0.6606 -0.3271 -0.2531
 2498UDC     C927476  16.445  11.545   1.581 -0.3675 -0.9829  0.2129
 2498UDC    C1027477  16.563  11.590   1.674  1.2030 -0.3608  0.4733
 2498UDC    C1127478  16.634  11.459   1.718 -0.3084  0.0243  0.2801
 2499UDC     C127479  15.855   9.185   5.866 -0.8161  0.6912  1.1320
 2499UDC     C227480  15.991   9.162   5.798 -0.8644  0.5164  0.4014
 2499UDC     C327481  16.090   9.276   5.825 -0.3395 -1.0831  0.2894
 2499UDC     C427482  16.193   9.271   5.712 -0.5952  0.8357  0.7573
 2499UDC     C527483  16.298   9.381   5.718  0.7837  1.3522 -0.9950
 2499UDC     C627484  16.390   9.378   5.842 -0.4826  0.0919  1.0648
 2499UDC     C727485  16.477   9.501   5.862 -0.4959 -0.7657 -0.2679
 2499UDC     C827486  16.596   9.527   5.764 -0.4643 -1.3649 -0.9432
 2499UDC     C927487  16.680   9.658   5.787 -0.2745 -0.6773 -0.3539
 2499UDC    C1027488  16.821   9.651   5.735 -0.4536 -0.0003  0.6255
 2499UDC    C1127489  16.890   9.786   5.765 -0.2667  0.0075  0.5005
 2500UDC     C127490  12.093   6.000   8.100 -0.1618  0.0885 -1.1843
 2500UDC     C227491  12.192   6.077   8.196  1.4583  0.8206 -0.0190
 2500UDC     C327492  12.166   6.042   8.343 -0.1715 -0.4569  0.0409
 2500UDC     C427493  12.031   6.065   8.397 -0.6872 -1.2198 -0.1809
 2500UDC     C527494  12.023   6.114   8.541  0.2278  0.6256 -0.8818
 2500UDC     C627495  11.867   6.129   8.585 -0.0694 -0.2989  0.3246
 2500UDC     C727496  11.789   6.261   8.574 -0.0136  0.0228 -0.7608
 2500UDC     C827497  11.660   6.270   8.658  0.2269  0.2882 -0.5346
 2500UDC     C927498  11.555   6.362   8.596 -0.7296  0.0917 -0.0797
 2500UDC    C1027499  11.430   6.355   8.685  0.8592  0.4157 -0.1868
 2500UDC    C1127500  11.315   6.443   8.623  0.7705  1.0784  0.7379
 2501UDC     C127501   6.087   4.409   9.152  0.9208  0.7582  0.0652
 2501UDC     C227502   6.230   4.353   9.181 -0.5667  0.3432 -0.4527
 2501UDC     C327503   6.346   4.424   9.114 -0.9747 -1.1862 -0.9273
 2501UDC     C427504   6.483   4.389   9.167 -0.3132  0.8899  0.3533
 2501UDC     C527505   6.606   4.434   9.084  0.2586 -0.4420 -0.4730
 2501UDC     C627506   6.671   4.572   9.078  0.8455 -0.2462  0.0272
 2501UDC     C727507   6.821   4.573   9.059 -0.0453  0.9171 -0.1137
 2501UDC     C827508   6.858   4.626   8.917  0.2757 -0.3275  0.2689
 2501UDC     C927509   6.806   4.757   8.856  0.5272  0.5287 -0.9429
 2501UDC    C1027510   6.857   4.890   8.918  0.2101  0.7069  0.8834
 2501UDC    C1127511   7.010   4.887   8.928  0.2192 -0.6071 -0.0750
 2502UDC     C127512   9.395  17.498   3.251  0.1615 -0.4003  0.3353
 2502UDC     C227513   9.473  17.439   3.141  0.0309  0.2023  0.8926
 2502UDC     C327514   9.620  17.393   3.180 -0.2098 -0.3524  0.3659
 2502UDC     C427515   9.696  17.346   3.056 -1.3468 -0.8886 -0.2766
 2502UDC     C527516   9.628  17.234   2.977 -0.7985  0.2342  1.4119
 2502UDC     C627517   9.564  17.109   3.042 -1.0154 -0.0171 -0.1430
 2502UDC     C727518   9.687  17.014   3.043  0.9461 -0.2450 -0.0380
 2502UDC     C827519   9.660  16.885   3.123  0.4940  0.1309 -0.1748
 2502UDC     C927520   9.722  16.887   3.262 -0.0213  0.1660 -0.9176
 2502UDC    C1027521   9.717  16.747   3.342 -0.6565 -0.8040 -0.8456
 2502UDC    C1127522   9.787  16.776   3.480 -0.8729 -0.0162  0.5754
 2503UDC     C127523  14.937  17.987  11.154  0.1628  0.6973  0.3142
 2503UDC     C227524  14.785  17.998  11.130 -0.0031 -0.2386  0.0050
 2503UDC     C327525  14.744  18.053  10.997  0.1282 -0.9537  1.2170
 2503UDC     C427526  14.760  18.204  10.973  0.0499  0.7972  0.1746
 2503UDC     C527527  14.758  18.229  10.824 -0.3832 -0.9266  0.3402
 2503UDC     C627528  14.883  18.195  10.742 -0.4915 -0.8694 -0.8958
 2503UDC     C727529  15.023  18.247  10.776 -0.4699  0.9674  0.3231
 2503UDC     C827530  15.095  18.353  10.699  0.8378 -0.5021 -0.4553
 2503UDC     C927531  15.029  18.490  10.719  0.5954 -0.1517  0.1602
 2503UDC    C1027532  15.058  18.587  10.600 -0.7914  0.1650  0.6503
 2503UDC    C1127533  15.009  18.741  10.613  0.7715  0.4809  0.3519
 2504UDC     C127534   9.673   2.727   0.150 -0.0939  0.0271  0.1383
 2504UDC     C227535   9.740   2.665   0.272 -0.1670  0.3574  0.4716
 2504UDC     C327536   9.890   2.674   0.302 -0.2673  0.1102  0.7012
 2504UDC     C427537   9.946   2.578   0.403 -0.7779 -0.3044 -1.6098
 2504UDC     C527538   9.974   2.448   0.330 -1.2878 -0.4702 -0.1444
 2504UDC     C627539  10.018   2.317   0.397  0.9130  0.0980 -1.2913
 2504UDC     C727540  10.094   2.345   0.534  0.4236  0.3064 -0.0329
 2504UDC     C827541  10.183   2.229   0.569 -0.2090  0.0041 -0.7397
 2504UDC     C927542  10.260   2.258   0.701  0.1926  0.4843  0.3303
 2504UDC    C1027543  10.345   2.141   0.744 -1.0892  0.5536 -0.7963
 2504UDC    C1127544  10.485   2.117   0.685  0.3552 -0.4094 -0.2381
 2505UDC     C127545   7.764   6.564  10.687  2.1473 -0.5359 -0.1231
 2505UDC     C227546   7.742   6.478  10.813 -0.7651 -0.0583 -0.4237
 2505UDC     C327547   7.879   6.432  10.859 -0.5186  0.5188 -0.0636
 2505UDC     C427548   7.908   6.388  11.008 -0.4649 -0.7082  1.3061
 2505UDC     C527549   7.808   6.305  11.085 -0.6155  0.9234 -0.4615
 2505UDC     C627550   7.835   6.150  11.061 -0.0033  0.9803 -0.6254
 2505UDC     C727551   7.819   6.111  10.911 -0.4244 -0.8956  1.2547
 2505UDC     C827552   7.844   5.965  10.881 -0.0204  1.3149 -0.2242
 2505UDC     C927553   7.732   5.878  10.940 -0.2671  0.0536 -0.3791
 2505UDC    C1027554   7.768   5.729  10.928 -0.4755 -0.3518 -0.2969
 2505UDC    C1127555   7.916   5.691  10.936 -0.0628 -0.1101  1.1326
 2506UDC     C127556   5.922  18.061  14.438 -0.5115  0.6479 -0.3177
 2506UDC     C227557   5.764  18.072  14.450  0.2078  1.1594 -0.2055
 2506UDC     C327558   5.712  18.007  14.321  0.0482  0.5702 -0.1356
 2506UDC     C427559   5.562  17.971  14.323 -0.0919  0.7138 -0.6141
 2506UDC     C527560   5.523  17.917  14.182 -1.1160  1.2508 -0.0530
 2506UDC     C627561   5.375  17.909  14.164 -0.5431 -0.1935  0.6704
 2506UDC     C727562   5.326  17.866  14.025  0.7987 -0.1405 -0.1586
 2506UDC     C827563   5.193  17.778  14.020 -0.0768  0.4484 -0.8754
 2506UDC     C927564   5.059  17.856  14.036 -0.7388  0.5200 -0.9469
 2506UDC    C1027565   4.938  17.775  14.086  0.1806  0.4402  0.6778
 2506UDC    C1127566   4.823  17.878  14.114  0.1151  0.1423  0.1950
 2507UDC     C127567  16.891  16.575  10.267  0.5690  0.3789  0.1932
 2507UDC     C227568  17.000  16.672  10.242 -0.9047  0.0894 -0.4048
 2507UDC     C327569  16.964  16.741  10.111 -0.7221 -0.7568  0.2807
 2507UDC     C427570  16.828  16.813  10.104  0.0776 -1.0405 -0.0920
 2507UDC     C527571  16.779  16.874   9.977 -0.2967  0.0539 -1.2221
 2507UDC     C627572  16.678  16.979  10.003 -0.5152  0.0762 -1.6587
 2507UDC     C727573  16.619  17.055   9.884 -1.0806  0.3029  0.8723
 2507UDC     C827574  16.593  16.957   9.769  1.0333  1.3051  0.0639
 2507UDC     C927575  16.532  17.030   9.648 -0.0081 -0.1377 -0.0148
 2507UDC    C1027576  16.395  17.085   9.667  0.1690  0.8594 -0.2134
 2507UDC    C1127577  16.319  17.167   9.554  0.9248 -0.5553 -0.7101
 2508UDC     C127578  10.925  14.867   9.358 -0.2333  0.8756 -0.0592
 2508UDC     C227579  10.982  14.724   9.385  1.0334  0.0345  0.3825
 2508UDC     C327580  10.890  14.606   9.323  1.1943 -0.2939 -0.7445
 2508UDC     C427581  10.845  14.608   9.173 -0.8396 -1.4193  0.8416
 2508UDC     C527582  10.966  14.585   9.086 -0.4037  0.1904 -0.8780
 2508UDC     C627583  10.944  14.530   8.939  0.5909  0.4066 -0.3090
 2508UDC     C727584  11.089  14.498   8.881  0.2354 -0.0486  0.4206
 2508UDC     C827585  11.085  14.408   8.751 -0.0903  0.4130 -0.4962
 2508UDC     C927586  11.005  14.458   8.636 -0.3166  1.3068  0.4322
 2508UDC    C1027587  11.093  14.530   8.530 -0.6152 -0.2729  0.9328
 2508UDC    C1127588  11.009  14.586   8.420  0.7215  0.4254 -0.2455
 2509UDC     C127589  17.859   5.132   7.670 -0.3572 -0.9183  1.1123
 2509UDC     C227590  17.975   5.042   7.717  0.5746 -0.4450  0.5411
 2509UDC     C327591  18.048   5.107   7.837 -0.4761 -0.2593 -0.0558
 2509UDC     C427592  18.177   5.041   7.889  0.1632  0.2339 -0.0749
 2509UDC     C527593  18.165   4.895   7.949  0.7727  0.1015  0.9841
 2509UDC     C627594  18.304   4.832   7.961  0.0568 -0.4933 -0.1132
 2509UDC     C727595  18.302   4.681   7.967 -0.0950 -0.4436 -0.0542
 2509UDC     C827596  18.440   4.629   8.012  0.4816 -0.5950  0.7428
 2509UDC     C927597  18.418   4.513   8.108 -0.9544  0.9090  0.5509
 2509UDC    C1027598  18.550   4.480   8.189  0.1071  0.4608  0.6603
 2509UDC    C1127599  18.528   4.381   8.307 -0.1958  0.7931  0.1564
 2510UDC     C127600   9.716  19.458  18.951  1.1285  1.4513 -1.1737
 2510UDC     C227601   9.601  19.367  18.929  0.8946  0.3337  0.7416
 2510UDC     C327602   9.597  19.267  18.808  0.2672  0.5701  0.6098
 2510UDC     C427603   9.727  19.206  18.762 -0.0743  0.5952  0.0086
 2510UDC     C527604   9.752  19.060  18.742 -0.0038 -0.3183 -0.9909
 2510UDC     C627605   9.753  18.971  18.861  0.5843  1.1303 -1.3709
 2510UDC     C727606   9.815  18.826  18.854 -0.5114 -1.4009  0.0816
 2510UDC     C827607   9.967  18.828  18.880 -0.0473  0.0867 -0.5209
 2510UDC     C927608  10.019  18.689  18.935  0.7822  0.8947  0.3318
 2510UDC    C1027609   9.932  18.663  19.066  0.9743 -0.0901 -0.4531
 2510UDC    C1127610  10.010  18.747  19.167 -0.4238 -0.0428 -0.6618
 2511UDC     C127611   2.063   8.741  13.161 -1.2636 -0.9146 -1.2387
 2511UDC     C227612   2.037   8.896  13.166  0.3957 -1.3196  0.5833
 2511UDC     C327613   2.069   8.933  13.021  0.2554 -0.4187 -0.2196
 2511UDC     C427614   2.068   9.090  12.981  0.1811  0.4114 -0.0372
 2511UDC     C527615   2.070   9.093  12.832  0.4192 -0.0785  0.4791
 2511UDC     C627616   2.170   9.019  12.749 -0.1421  1.0545 -0.4970
 2511UDC     C727617   2.313   9.053  12.755 -0.5411  0.4304 -0.6599
 2511UDC     C827618   2.379   8.942  12.678 -0.3096 -0.4828 -0.5256
 2511UDC     C927619   2.534   8.947  12.700  0.4639 -0.0369  0.1923
 2511UDC    C1027620   2.587   9.087  12.677 -0.5603 -0.0232 -1.1260
 2511UDC    C1127621   2.748   9.087  12.668 -0.5857  0.5642 -0.0291
 2512UDC     C127622   2.673   9.143   0.758 -0.1140 -0.1448  0.4737
 2512UDC     C227623   2.742   9.080   0.883  0.3689 -0.2482  0.4541
 2512UDC     C327624   2.757   9.157   1.010 -0.3823  0.6833  0.0380
 2512UDC     C427625   2.814   9.055   1.117  0.4097  0.5513  0.4913
 2512UDC     C527626   2.779   9.062   1.266  0.0558 -0.0786 -0.0252
 2512UDC     C627627   2.898   9.134   1.351  0.0029 -0.5869  0.0600
 2512UDC     C727628   2.850   9.146   1.508 -0.3263 -0.4826  0.5129
 2512UDC     C827629   2.961   9.197   1.606  0.3540  1.3555 -0.3182
 2512UDC     C927630   2.923   9.268   1.735 -0.0122 -1.1531 -0.6051
 2512UDC    C1027631   3.058   9.339   1.758  0.3116  0.0659 -0.6294
 2512UDC    C1127632   3.088   9.380   1.910 -0.3545  0.2396 -0.3954
 2513UDC     C127633  17.669  13.562   2.340 -0.3705 -0.6491 -0.7072
 2513UDC     C227634  17.512  13.570   2.355 -0.6733 -1.7921 -0.2141
 2513UDC     C327635  17.461  13.715   2.375  0.9104  0.5176 -0.5009
 2513UDC     C427636  17.555  13.809   2.449 -0.4039  0.5144 -0.3052
 2513UDC     C527637  17.478  13.919   2.505  0.9430  0.1292 -0.5472
 2513UDC     C627638  17.328  13.894   2.529  0.6870  0.5264  0.0266
 2513UDC     C727639  17.268  13.987   2.634  0.3592 -0.6251 -0.5455
 2513UDC     C827640  17.352  13.993   2.762 -1.4562 -0.1946  0.1427
 2513UDC     C927641  17.312  13.885   2.867 -0.3994 -0.8870  0.4299
 2513UDC    C1027642  17.210  13.961   2.966 -1.1465  0.8198 -0.4518
 2513UDC    C1127643  17.290  14.063   3.044  0.3498  0.3782  0.8996
 2514UDC     C127644   4.163   5.861   9.239 -0.4672 -0.3064 -0.2065
 2514UDC     C227645   4.117   5.729   9.158  0.4851 -1.9370 -0.4489
 2514UDC     C327646   4.200   5.693   9.037 -0.5870  0.0888 -0.0771
 2514UDC     C427647   4.349   5.702   9.059 -0.6571  0.7861  0.4374
 2514UDC     C527648   4.454   5.614   8.980 -0.0199  0.1857 -0.5946
 2514UDC     C627649   4.402   5.471   8.953  0.0669  0.5832 -0.5630
 2514UDC     C727650   4.521   5.375   8.927  0.4957 -1.4029 -1.1283
 2514UDC     C827651   4.616   5.414   8.805  1.4800  1.1272 -0.8541
 2514UDC     C927652   4.712   5.286   8.772 -0.2329  0.6554 -0.7521
 2514UDC    C1027653   4.826   5.342   8.684 -0.1704  0.4205  0.7370
 2514UDC    C1127654   4.759   5.357   8.543 -0.1087  0.0308  0.1819
 2515UDC     C127655  12.985  15.334   0.616 -0.2290  1.2342 -0.3812
 2515UDC     C227656  12.923  15.229   0.523  0.6986 -0.8704 -0.5013
 2515UDC     C327657  12.873  15.305   0.398 -0.1877 -0.4144  0.0430
 2515UDC     C427658  12.813  15.224   0.281 -0.4565 -0.5045 -0.9898
 2515UDC     C527659  12.660  15.205   0.279 -0.0921  0.0435 -0.3313
 2515UDC     C627660  12.587  15.119   0.177  0.4403  0.5974 -0.3583
 2515UDC     C727661  12.650  14.984   0.120  0.4371  0.1199 -0.1103
 2515UDC     C827662  12.558  14.889   0.037  0.0647  0.1488 -0.3609
 2515UDC     C927663  12.643  14.836  -0.082  0.2377 -0.1808 -0.4387
 2515UDC    C1027664  12.563  14.754  -0.188 -0.9405 -0.5392  0.6807
 2515UDC    C1127665  12.483  14.845  -0.287 -0.0415  0.2159 -0.8870
 2516UDC     C127666  17.098  19.555  19.039 -0.0953  0.7142 -0.2632
 2516UDC     C227667  17.178  19.446  18.958  0.9021  0.9164  0.4350
 2516UDC     C327668  17.194  19.314  19.044  0.6397 -0.4202  0.4418
 2516UDC     C427669  17.231  19.185  18.979 -0.1932  0.2556  0.6016
 2516UDC     C527670  17.286  19.074  19.074  0.5120 -0.1382 -0.0257
 2516UDC     C627671  17.396  19.112  19.171 -0.9316  1.4481  0.8640
 2516UDC     C727672  17.412  19.004  19.281 -0.8119  1.2625 -0.2831
 2516UDC     C827673  17.546  19.026  19.359 -0.5178  0.3012  0.5408
 2516UDC     C927674  17.664  19.045  19.263 -0.3193  1.4792  0.1887
 2516UDC    C1027675  17.795  19.032  19.340 -0.1884 -1.0201  0.8881
 2516UDC    C1127676  17.823  18.914  19.416 -0.5861 -0.5012 -0.4032
 2517UDC     C127677   7.966   7.752   5.435 -0.5424 -0.0747  0.0312
 2517UDC     C227678   8.057   7.842   5.341 -0.5319 -0.5883 -0.3104
 2517UDC     C327679   8.187   7.783   5.289 -0.9022  0.4695  0.0176
 2517UDC     C427680   8.253   7.900   5.224 -0.7410  0.5264 -0.4062
 2517UDC     C527681   8.381   7.855   5.145  1.0903 -0.8122 -0.5772
 2517UDC     C627682   8.464   7.954   5.064 -0.2707 -0.7087 -0.1562
 2517UDC     C727683   8.588   7.890   4.995  0.1074 -0.1204  0.7122
 2517UDC     C827684   8.667   7.983   4.898 -0.2110  0.5054  1.4931
 2517UDC     C927685   8.786   7.947   4.804  0.0414 -0.5368  0.5344
 2517UDC    C1027686   8.883   7.852   4.870 -0.0509 -0.1855 -0.6311
 2517UDC    C1127687   8.971   7.896   4.990 -0.0289 -0.0670 -0.9349
 2518UDC     C127688  17.137  13.877  12.563 -0.2490  0.2855  0.5504
 2518UDC     C227689  17.008  13.949  12.519 -0.3944  0.2086  0.4025
 2518UDC     C327690  17.022  14.096  12.563 -0.5613  0.6113 -0.5709
 2518UDC     C427691  16.917  14.182  12.489 -0.3350 -1.3108 -0.1667
 2518UDC     C527692  16.905  14.179  12.336  0.3848 -0.9032  1.5857
 2518UDC     C627693  17.031  14.260  12.283  0.1512  0.5408 -0.7188
 2518UDC     C727694  17.039  14.236  12.135 -0.3012 -1.1790 -0.6215
 2518UDC     C827695  17.144  14.316  12.062 -0.9022  1.3370  0.0038
 2518UDC     C927696  17.107  14.323  11.915  0.4461 -0.0008  0.4829
 2518UDC    C1027697  17.203  14.390  11.823 -0.5997  0.2773 -0.4500
 2518UDC    C1127698  17.141  14.411  11.683 -0.1538  1.3340  0.7499
 2519UDC     C127699  10.261   2.197  10.648 -0.8521 -0.0600 -0.8306
 2519UDC     C227700  10.294   2.171  10.795 -0.5251  0.0288  0.3057
 2519UDC     C327701  10.429   2.228  10.844  0.4780 -1.0636 -1.5692
 2519UDC     C427702  10.553   2.205  10.764 -0.7544 -0.3947 -1.0484
 2519UDC     C527703  10.652   2.325  10.779  0.2666  0.0519 -0.0999
 2519UDC     C627704  10.585   2.452  10.724 -0.2905 -0.4949 -0.1505
 2519UDC     C727705  10.623   2.572  10.820  0.6384 -0.2119 -0.2042
 2519UDC     C827706  10.529   2.685  10.812 -0.5581 -0.9056  0.8054
 2519UDC     C927707  10.596   2.812  10.755 -0.9221  0.4002  0.1671
 2519UDC    C1027708  10.521   2.948  10.745  0.2510 -0.2177 -0.0933
 2519UDC    C1127709  10.624   3.061  10.713 -0.0566 -0.3679 -0.5603
 2520UDC     C127710  17.454   6.984  19.612 -0.1161 -0.8138 -0.1698
 2520UDC     C227711  17.435   6.857  19.534  0.5984  0.4084  0.3236
 2520UDC     C327712  17.382   6.876  19.390  0.3320  0.6557  0.1796
 2520UDC     C427713  17.311   6.757  19.334  0.6059  1.2145 -0.5987
 2520UDC     C527714  17.299   6.725  19.185  0.0790  0.8741 -0.2469
 2520UDC     C627715  17.252   6.581  19.142 -0.2790 -0.6022 -0.7023
 2520UDC     C727716  17.309   6.460  19.215 -0.6065  0.2670 -0.5238
 2520UDC     C827717  17.288   6.327  19.140  0.3125 -0.4262  0.5987
 2520UDC     C927718  17.373   6.214  19.197 -0.7283 -0.8388  0.3948
 2520UDC    C1027719  17.309   6.071  19.172  0.5453 -0.3514 -0.1121
 2520UDC    C1127720  17.407   5.962  19.135  0.3336  0.3577  0.0440
 2521UDC     C127721   0.620   8.007   9.278 -0.8306  0.1504  0.1712
 2521UDC     C227722   0.770   8.046   9.287  0.2976  0.3900 -0.3993
 2521UDC     C327723   0.764   8.187   9.261  1.1332 -1.2593  0.7045
 2521UDC     C427724   0.891   8.269   9.259  0.6114 -0.6985  0.0870
 2521UDC     C527725   0.896   8.381   9.158 -0.0085  0.2972 -0.4178
 2521UDC     C627726   0.797   8.501   9.158  0.1043 -0.1534  1.4168
 2521UDC     C727727   0.845   8.609   9.054  0.4344 -0.0686  0.3287
 2521UDC     C827728   0.982   8.676   9.102 -0.5299 -0.2037 -0.7887
 2521UDC     C927729   1.020   8.800   9.014  0.3949  0.3628 -0.4392
 2521UDC    C1027730   1.169   8.810   8.996  0.6165 -0.5562  0.2887
 2521UDC    C1127731   1.250   8.771   9.115  0.0078  0.2919 -1.0730
 2522UDC     C127732  15.377  17.221  10.027 -0.3898  0.0116  0.5179
 2522UDC     C227733  15.479  17.333  10.047 -0.4266 -0.3975 -0.2555
 2522UDC     C327734  15.528  17.387   9.915 -0.0726  0.8526 -0.0209
 2522UDC     C427735  15.590  17.279   9.827  0.7745  0.2122 -0.6132
 2522UDC     C527736  15.635  17.339   9.690 -0.4899  0.6973 -0.2585
 2522UDC     C627737  15.751  17.260   9.623  0.2522  0.5962 -1.3231
 2522UDC     C727738  15.764  17.287   9.469 -0.0509  0.0239  0.2523
 2522UDC     C827739  15.884  17.219   9.399 -0.1882  1.0612  0.4181
 2522UDC     C927740  15.878  17.245   9.249 -0.1612  1.1511 -0.6536
 2522UDC    C1027741  16.015  17.229   9.194 -0.6403 -1.0810 -0.6513
 2522UDC    C1127742  16.071  17.094   9.142  0.5522 -0.4017 -0.2762
 2523UDC     C127743   2.935  11.700   2.049 -0.8051  0.3393 -0.4899
 2523UDC     C227744   2.981  11.773   1.929 -0.4199 -0.6468 -0.2728
 2523UDC     C327745   3.123  11.769   1.867  0.2788 -1.6374 -0.6976
 2523UDC     C427746   3.118  11.739   1.718  0.2508 -0.0919  0.4337
 2523UDC     C527747   3.239  11.716   1.620  0.4701 -0.3232  0.1788
 2523UDC     C627748   3.332  11.834   1.601  0.2354  0.3674  0.0131
 2523UDC     C727749   3.464  11.764   1.573 -0.0337 -0.0690 -0.1651
 2523UDC     C827750   3.476  11.674   1.696 -0.5248 -0.0725 -0.0621
 2523UDC     C927751   3.620  11.617   1.720  1.2234 -0.9098  0.1807
 2523UDC    C1027752   3.609  11.486   1.794  1.3514 -0.0211  0.8479
 2523UDC    C1127753   3.551  11.371   1.703 -1.0341  0.6044  0.3091
 2524UDC     C127754  14.581   6.228   1.225  1.2176 -1.1100  0.0365
 2524UDC     C227755  14.662   6.123   1.132  0.0117 -0.4943 -0.3864
 2524UDC     C327756  14.579   6.088   1.008  1.3857  0.5131 -1.0817
 2524UDC     C427757  14.653   6.069   0.877 -0.2332  0.2227 -1.1447
 2524UDC     C527758  14.604   5.952   0.792 -0.4860  0.1891 -1.4966
 2524UDC     C627759  14.662   5.812   0.820 -0.1461  0.9326  0.1228
 2524UDC     C727760  14.594   5.686   0.759 -1.0250  0.4717 -0.0010
 2524UDC     C827761  14.449   5.653   0.793  0.9268 -0.2757 -1.1964
 2524UDC     C927762  14.445   5.565   0.923  1.2444  0.2007 -0.4467
 2524UDC    C1027763  14.459   5.414   0.889 -0.7032  0.3655  0.7910
 2524UDC    C1127764  14.401   5.407   0.746  0.2070  0.3574  0.1244
 2525UDC     C127765  11.529   7.830   8.134  0.4611  0.4464  0.2770
 2525UDC     C227766  11.471   7.790   7.994  1.0003 -0.4231 -1.0737
 2525UDC     C327767  11.411   7.902   7.904  0.0762 -0.3179  0.5428
 2525UDC     C427768  11.337   8.023   7.976 -0.3524  0.7529  0.7736
 2525UDC     C527769  11.246   8.117   7.886  0.5773 -0.3432 -0.7389
 2525UDC     C627770  11.239   8.267   7.911  0.7577  0.1495 -0.1062
 2525UDC     C727771  11.143   8.370   7.838  0.5571 -0.3698 -0.6282
 2525UDC     C827772  11.149   8.523   7.879 -1.0360 -1.3891 -0.6959
 2525UDC     C927773  11.279   8.583   7.823 -0.6641  0.2215 -2.2626
 2525UDC    C1027774  11.278   8.608   7.672  0.3609 -0.0948  0.6442
 2525UDC    C1127775  11.184   8.721   7.637  0.1751 -0.1835 -0.0161
 2526UDC     C127776   2.426   2.138   4.545 -0.1879 -0.2682  0.2132
 2526UDC     C227777   2.356   2.274   4.551 -0.8995 -0.3683 -0.2653
 2526UDC     C327778   2.433   2.387   4.480  0.5862 -0.2335  0.7429
 2526UDC     C427779   2.569   2.417   4.540  0.9492  0.4204 -0.4295
 2526UDC     C527780   2.608   2.561   4.497 -0.5532 -0.4028 -0.2689
 2526UDC     C627781   2.748   2.616   4.547 -0.6192 -0.7424  0.0340
 2526UDC     C727782   2.805   2.743   4.485 -0.6349 -0.3733 -0.0876
 2526UDC     C827783   2.725   2.878   4.518  0.3047  0.3699  0.6310
 2526UDC     C927784   2.674   2.893   4.660 -0.6261 -0.5207 -0.7260
 2526UDC    C1027785   2.593   3.016   4.689 -0.2922  0.8375 -0.3164
 2526UDC    C1127786   2.573   3.037   4.838  0.3480 -1.2633 -0.0584
 2527UDC     C127787   5.486  17.517  11.125 -0.2024 -0.0251 -0.0332
 2527UDC     C227788   5.463  17.529  10.973 -0.3142 -0.6737 -0.1136
 2527UDC     C327789   5.456  17.391  10.911 -0.1001  0.5124 -0.6889
 2527UDC     C427790   5.322  17.314  10.911  0.3133  0.5042  0.4867
 2527UDC     C527791   5.352  17.173  10.842  0.6175 -0.0105  0.1558
 2527UDC     C627792   5.346  17.169  10.688 -0.1299  0.1189 -0.5946
 2527UDC     C727793   5.384  17.036  10.619 -0.0278 -0.1089 -0.0277
 2527UDC     C827794   5.524  16.988  10.632 -0.4669 -0.8646  0.3283
 2527UDC     C927795   5.552  16.875  10.537 -0.7907  0.0752  0.3754
 2527UDC    C1027796   5.533  16.927  10.398 -0.7299 -0.0905  0.4502
 2527UDC    C1127797   5.547  16.822  10.284  0.0065  0.4132 -0.4951
 2528UDC     C127798  15.252   7.414   2.062 -0.0861 -0.7924 -0.5580
 2528UDC     C227799  15.249   7.261   2.080 -0.5163 -0.2521  0.0896
 2528UDC     C327800  15.359   7.179   2.013 -0.8722 -1.3862 -0.4307
 2528UDC     C427801  15.481   7.148   2.103  0.1186  0.4153  0.8354
 2528UDC     C527802  15.599   7.087   2.019 -0.9807  0.4691  1.2246
 2528UDC     C627803  15.596   7.024   1.875 -0.1350  0.2428  0.3873
 2528UDC     C727804  15.589   7.128   1.759  0.5971 -0.0753  0.7915
 2528UDC     C827805  15.681   7.073   1.641  0.3181 -0.1827  0.1676
 2528UDC     C927806  15.670   7.135   1.497  0.0122 -0.3396  0.2131
 2528UDC    C1027807  15.635   7.294   1.487  0.7458  1.2771  0.2520
 2528UDC    C1127808  15.622   7.353   1.346 -0.2857  0.3715  0.7120
 2529UDC     C127809   2.177  10.920  18.531 -0.7757 -1.0544 -1.0476
 2529UDC     C227810   2.267  10.936  18.401  1.0008 -0.8873 -0.3710
 2529UDC     C327811   2.300  10.801  18.335 -0.1706 -0.2335 -0.4911
 2529UDC     C427812   2.351  10.793  18.192 -0.2482 -0.2633  0.4391
 2529UDC     C527813   2.259  10.753  18.073 -0.1829  0.0101  1.0028
 2529UDC     C627814   2.181  10.612  18.090 -0.1230 -0.6637  1.1007
 2529UDC     C727815   2.034  10.622  18.036 -0.5386  0.1199 -0.7858
 2529UDC     C827816   1.939  10.718  18.112 -0.5441 -0.1535  0.3786
 2529UDC     C927817   1.805  10.755  18.069 -0.3837 -0.4347 -1.0644
 2529UDC    C1027818   1.788  10.861  17.957  0.4222  0.1784  0.4257
 2529UDC    C1127819   1.826  10.814  17.820 -0.1164 -0.0286  0.6183
 2530UDC     C127820  13.565  14.177   0.553 -0.2726 -0.2149 -0.4605
 2530UDC     C227821  13.673  14.286   0.576 -0.0249  0.0927  0.5934
 2530UDC     C327822  13.667  14.355   0.435 -0.4012 -1.1623 -1.8347
 2530UDC     C427823  13.786  14.463   0.456  1.4345  0.3083  0.3957
 2530UDC     C527824  13.755  14.579   0.557 -0.3640  0.5106 -0.8214
 2530UDC     C627825  13.863  14.602   0.660 -0.0851 -0.4494 -0.0998
 2530UDC     C727826  13.951  14.723   0.634  0.8067  0.0188 -0.4068
 2530UDC     C827827  13.866  14.851   0.612  0.8490  0.0205 -0.4331
 2530UDC     C927828  13.928  14.990   0.616 -0.7844  0.0981 -0.1395
 2530UDC    C1027829  13.807  15.093   0.612 -1.2212 -0.4298 -1.0206
 2530UDC    C1127830  13.790  15.108   0.465  0.2067 -0.0408 -0.6198
 2531UDC     C127831   5.764  13.272   9.674  0.1825 -0.4054  0.1389
 2531UDC     C227832   5.792  13.136   9.602  0.4425  0.8136  0.9022
 2531UDC     C327833   5.674  13.039   9.633 -0.2191 -0.7292  0.4565
 2531UDC     C427834   5.551  13.085   9.553 -0.0301 -0.6378 -0.3024
 2531UDC     C527835   5.443  12.979   9.513  0.3675 -0.9840 -0.5965
 2531UDC     C627836   5.318  12.974   9.617  0.2871  0.5479 -0.8144
 2531UDC     C727837   5.188  12.955   9.546 -0.1983  0.3798 -0.1940
 2531UDC     C827838   5.078  12.882   9.633  0.0983 -0.5398 -0.0884
 2531UDC     C927839   4.985  12.819   9.530  0.2695 -0.3640  0.5208
 2531UDC    C1027840   4.846  12.822   9.593 -0.3842 -0.0608  0.2318
 2531UDC    C1127841   4.715  12.787   9.514 -0.6641 -0.3827 -2.4894
 2532UDC     C127842   5.775  19.547  19.807 -0.2414 -0.1822  0.1958
 2532UDC     C227843   5.753  19.427  19.900  0.9885 -0.1537  0.0837
 2532UDC     C327844   5.863  19.323  19.932 -0.1177 -0.2071  1.0947
 2532UDC     C427845   6.001  19.388  19.920 -0.3631 -0.4151 -0.2956
 2532UDC     C527846   6.115  19.284  19.957  0.3216  0.4081 -0.6593
 2532UDC     C627847   6.257  19.341  19.924  0.1116 -0.2543  1.1463
 2532UDC     C727848   6.322  19.345  19.779  0.2665 -0.0761  0.3514
 2532UDC     C827849   6.389  19.209  19.735 -0.8657 -0.3997  0.0749
 2532UDC     C927850   6.446  19.205  19.588  0.1410  0.5515 -0.8745
 2532UDC    C1027851   6.389  19.088  19.503 -0.4709 -0.0729  0.0937
 2532UDC    C1127852   6.446  19.091  19.355  2.1624  0.1181 -0.4200
 2533UDC     C127853   3.223   2.477   1.712  0.7523 -0.1758  0.0259
 2533UDC     C227854   3.368   2.513   1.733 -0.1083  0.3264  0.2989
 2533UDC     C327855   3.453   2.390   1.747  0.4503  0.4584 -0.5908
 2533UDC     C427856   3.612   2.419   1.766  1.0903  0.5187  0.0223
 2533UDC     C527857   3.710   2.309   1.792  0.8416  0.5262 -0.6811
 2533UDC     C627858   3.849   2.318   1.736 -0.6342 -0.1793 -0.2652
 2533UDC     C727859   3.934   2.193   1.757  0.0439  0.8166 -0.0138
 2533UDC     C827860   4.010   2.211   1.890 -0.0410 -0.1166 -0.7514
 2533UDC     C927861   4.120   2.112   1.912 -0.7189  1.5339  0.1427
 2533UDC    C1027862   4.202   2.142   2.032  0.4390  0.1219  1.4557
 2533UDC    C1127863   4.272   2.021   2.095 -0.6595 -0.1656 -0.2880
 2534UDC     C127864  12.375   7.352   9.825 -0.4763  0.2656  0.3109
 2534UDC     C227865  12.231   7.296   9.816  0.6329  0.8920  1.0496
 2534UDC     C327866  12.242   7.155   9.755  0.1006 -0.3606  0.1446
 2534UDC     C427867  12.303   7.036   9.833  0.7261  0.6848  0.4266
 2534UDC     C527868  12.363   6.928   9.743  0.1136  0.3030 -0.0139
 2534UDC     C627869  12.453   6.984   9.634 -1.5134  0.1173  0.3537
 2534UDC     C727870  12.570   7.055   9.707 -0.7337 -0.1165  0.0860
 2534UDC     C827871  12.699   7.037   9.625  0.2848 -0.1019  0.1910
 2534UDC     C927872  12.742   6.891   9.588  0.0132 -0.6092  0.4257
 2534UDC    C1027873  12.823   6.889   9.458  0.2066 -0.3465  0.2927
 2534UDC    C1127874  12.869   6.747   9.410 -0.3041  0.5083  0.3334
 2535UDC     C127875  17.893  13.148   1.211  0.2016 -0.2914  0.1424
 2535UDC     C227876  17.759  13.237   1.192 -0.7006  0.3204  0.6459
 2535UDC     C327877  17.662  13.177   1.082 -0.0462 -0.2002  0.4080
 2535UDC     C427878  17.574  13.277   1.003  0.2122  0.3866  0.1368
 2535UDC     C527879  17.624  13.316   0.863  1.0549  0.5862  0.2044
 2535UDC     C627880  17.534  13.430   0.796 -1.6587 -0.1656 -0.8560
 2535UDC     C727881  17.600  13.466   0.664  0.2360 -0.1625  0.6012
 2535UDC     C827882  17.497  13.525   0.563 -0.0127  0.8214  0.9216
 2535UDC     C927883  17.405  13.406   0.519 -0.5428  0.6168 -0.0284
 2535UDC    C1027884  17.285  13.453   0.444 -0.2271  0.1631 -0.5933
 2535UDC    C1127885  17.200  13.574   0.489 -0.7322  0.4128 -0.7393
 2536UDC     C127886   1.403  17.923  13.002  0.2329  0.1763  0.6678
 2536UDC     C227887   1.251  17.889  13.008 -0.3791 -0.6879 -0.3047
 2536UDC     C327888   1.216  17.926  13.148  0.5869  1.0692 -1.1520
 2536UDC     C427889   1.071  17.932  13.182 -0.6206 -0.3905  0.1132
 2536UDC     C527890   1.050  17.960  13.323  1.3351 -0.7700 -1.0934
 2536UDC     C627891   0.906  17.974  13.368  0.1429 -0.2751 -0.6092
 2536UDC     C727892   0.808  17.864  13.323 -0.0208 -1.3525  0.7985
 2536UDC     C827893   0.813  17.723  13.380  0.1102 -0.1192  0.0776
 2536UDC     C927894   0.695  17.639  13.319 -0.1885 -1.0100  0.0740
 2536UDC    C1027895   0.704  17.488  13.336 -0.5097  0.2259 -0.1330
 2536UDC    C1127896   0.563  17.438  13.364  0.2639 -0.5007 -0.2226
 2537UDC     C127897  19.322   8.706   6.444  0.7310  1.2258  0.2431
 2537UDC     C227898  19.206   8.645   6.350  0.8046  0.7297  0.8266
 2537UDC     C327899  19.192   8.487   6.351  0.6000  0.5678 -0.2985
 2537UDC     C427900  19.083   8.411   6.280 -0.1959  0.4994  0.2760
 2537UDC     C527901  19.038   8.275   6.342  0.2145 -0.5745 -1.3377
 2537UDC     C627902  18.899   8.235   6.300 -0.3518 -0.7267 -0.9924
 2537UDC     C727903  18.829   8.120   6.375  0.1492 -0.5181  0.0756
 2537UDC     C827904  18.794   8.158   6.513  1.3904 -0.6687 -0.4988
 2537UDC     C927905  18.895   8.097   6.605  0.0117 -0.5690  0.0008
 2537UDC    C1027906  18.867   8.165   6.737 -0.2019 -0.0836  0.0937
 2537UDC    C1127907  18.980   8.168   6.843  0.1075  0.0419 -0.0290
 2538UDC     C127908  19.235  16.455  18.083  0.0841 -0.1397  0.2944
 2538UDC     C227909  19.122  16.423  17.983 -1.0936 -0.2765 -0.7119
 2538UDC     C327910  19.173  16.337  17.867  0.2041  0.4767 -0.1267
 2538UDC     C427911  19.068  16.306  17.763  0.2784  0.5748 -0.7987
 2538UDC     C527912  18.938  16.258  17.817 -0.0488  0.4904  0.4121
 2538UDC     C627913  18.832  16.273  17.713  1.1055 -0.0256 -0.5153
 2538UDC     C727914  18.687  16.290  17.772  0.1026 -0.0056  0.5648
 2538UDC     C827915  18.633  16.197  17.875 -0.4654 -0.4619  0.0520
 2538UDC     C927916  18.540  16.098  17.799 -0.2021  0.9489 -0.7042
 2538UDC    C1027917  18.480  15.987  17.883  0.5304  0.4169  0.4276
 2538UDC    C1127918  18.401  15.862  17.840  0.5684  1.1902  0.1071
 2539UDC     C127919  14.419   7.469   1.422  0.4071 -0.1024 -0.7127
 2539UDC     C227920  14.313   7.458   1.529  0.4093 -0.6260  0.2656
 2539UDC     C327921  14.277   7.609   1.574 -0.3317  0.6729 -0.4212
 2539UDC     C427922  14.322   7.717   1.471 -0.0088  0.4083 -0.1789
 2539UDC     C527923  14.334   7.856   1.545  0.1464  0.7098 -0.1353
 2539UDC     C627924  14.239   7.960   1.493 -0.3910  1.2751  0.0000
 2539UDC     C727925  14.088   7.918   1.490  0.1363  1.1693  0.0163
 2539UDC     C827926  13.986   8.023   1.536  0.3013  1.3456  0.3661
 2539UDC     C927927  13.860   7.974   1.459 -0.1237  0.4193 -1.3597
 2539UDC    C1027928  13.745   8.067   1.463 -0.6747 -0.7926  0.6249
 2539UDC    C1127929  13.690   8.119   1.335  0.9096  0.2551  0.5775
 2540UDC     C127930  18.670   1.302  16.454  0.0557  0.3365  0.4749
 2540UDC     C227931  18.602   1.285  16.311 -0.1518 -0.9429 -0.0426
 2540UDC     C327932  18.457   1.251  16.336  0.2227 -0.6696 -1.0880
 2540UDC     C427933  18.369   1.376  16.324  0.3443 -0.1479  0.8992
 2540UDC     C527934  18.220   1.367  16.343 -0.6326  0.3572  0.1558
 2540UDC     C627935  18.153   1.284  16.225 -0.4954 -0.0901 -0.5591
 2540UDC     C727936  18.002   1.288  16.243 -0.2165  1.8748  0.3162
 2540UDC     C827937  17.943   1.259  16.382  0.2306  0.4851  1.1243
 2540UDC     C927938  17.789   1.276  16.386 -0.1298  0.0663 -0.8585
 2540UDC    C1027939  17.697   1.179  16.312  0.1045  0.2167 -0.4025
 2540UDC    C1127940  17.554   1.177  16.376  0.7065 -0.3842 -0.8096
 2541UDC     C127941   5.580   5.757   1.841 -0.1881  0.5330  0.3807
 2541UDC     C227942   5.629   5.612   1.884  0.4321 -0.3213  0.2960
 2541UDC     C327943   5.778   5.578   1.866 -0.3426  0.0532 -0.6585
 2541UDC     C427944   5.862   5.627   1.985  0.4836 -0.5872 -0.3786
 2541UDC     C527945   5.787   5.560   2.101 -0.4803 -0.9920  0.3331
 2541UDC     C627946   5.866   5.552   2.231  0.3408  0.6170 -1.0144
 2541UDC     C727947   5.844   5.683   2.316 -0.7111 -1.1453 -0.4528
 2541UDC     C827948   5.930   5.694   2.444  0.3544 -0.0161  0.4788
 2541UDC     C927949   5.905   5.828   2.519  0.6493  0.4068  0.2393
 2541UDC    C1027950   5.922   5.948   2.424  0.9615 -0.0164 -0.2126
 2541UDC    C1127951   5.839   6.067   2.480 -0.9177  0.6528  0.2400
 2542UDC     C127952  15.814  15.782   1.212  0.9667  0.7490  1.5303
 2542UDC     C227953  15.737  15.650   1.192  0.4467  0.6200 -0.6367
 2542UDC     C327954  15.777  15.583   1.061 -1.0196  0.0075  1.2764
 2542UDC     C427955  15.921  15.536   1.039  0.1456 -0.0717  1.2604
 2542UDC     C527956  15.939  15.417   0.937  0.2340  0.4727  0.0917
 2542UDC     C627957  16.084  15.404   0.906 -0.4856  0.7930  0.4859
 2542UDC     C727958  16.120  15.261   0.856 -1.0574 -0.8050  0.7852
 2542UDC     C827959  16.274  15.254   0.841  0.0287  0.2484 -0.8671
 2542UDC     C927960  16.315  15.120   0.903 -0.4176  0.0482 -0.7867
 2542UDC    C1027961  16.463  15.084   0.903 -0.2048  0.1001  0.3007
 2542UDC    C1127962  16.555  15.173   0.995 -0.1853  0.1782 -0.3224
 2543UDC     C127963   9.269   5.585  12.248  0.0398 -0.1914 -0.0901
 2543UDC     C227964   9.148   5.512  12.319 -1.0856  0.2766  0.7449
 2543UDC     C327965   9.080   5.619  12.407 -0.2086 -0.3035 -0.9498
 2543UDC     C427966   9.123   5.758  12.348  0.6847 -1.1214 -0.2248
 2543UDC     C527967   9.032   5.880  12.382  0.4890  0.2430  0.4720
 2543UDC     C627968   8.926   5.894  12.270 -0.3045  0.9410 -0.3026
 2543UDC     C727969   8.822   5.995  12.329 -1.1467  1.5304  0.3585
 2543UDC     C827970   8.771   5.950  12.468 -0.8955  0.0916  0.8189
 2543UDC     C927971   8.702   5.813  12.434 -0.6307  0.6069  0.2851
 2543UDC    C1027972   8.693   5.702  12.539 -0.1084 -0.4719 -1.2189
 2543UDC    C1127973   8.578   5.733  12.641  0.4400  0.6545  0.4620
 2544UDC     C127974  12.578  12.330   8.839 -0.3979 -0.4971  0.5122
 2544UDC     C227975  12.608  12.289   8.695 -0.2784 -0.1316  0.2579
 2544UDC     C327976  12.470  12.250   8.641 -0.1221  0.4759 -0.1068
 2544UDC     C427977  12.344  12.331   8.686  0.7657 -0.1253  0.0407
 2544UDC     C527978  12.230  12.234   8.706  0.9098 -0.0575  1.1329
 2544UDC     C627979  12.089  12.288   8.760 -0.7694 -1.4670  0.0710
 2544UDC     C727980  12.094  12.294   8.915  0.0714 -0.1194 -0.2352
 2544UDC     C827981  12.091  12.167   8.994 -0.5175 -0.2857 -0.7395
 2544UDC     C927982  12.107  12.196   9.143 -0.2241 -0.2342 -0.5442
 2544UDC    C1027983  12.231  12.287   9.184 -0.2502  0.9002  0.4706
 2544UDC    C1127984  12.271  12.274   9.336  0.2506 -0.7110 -0.5098
 2545UDC     C127985  17.887   4.542   4.107 -0.0766  0.8711 -0.6601
 2545UDC     C227986  17.813   4.427   4.169  0.0795  1.4332 -0.0050
 2545UDC     C327987  17.664   4.443   4.181 -1.0252  0.4627 -0.7312
 2545UDC     C427988  17.606   4.423   4.041  0.1660  0.6026  0.1579
 2545UDC     C527989  17.456   4.470   4.005  0.9307  0.8633  0.2839
 2545UDC     C627990  17.417   4.499   3.861 -0.1491 -0.7235  0.3950
 2545UDC     C727991  17.508   4.427   3.776  0.3098  0.6378  0.5559
 2545UDC     C827992  17.492   4.471   3.623  1.4030  0.0566 -0.0354
 2545UDC     C927993  17.446   4.618   3.588  0.1962  0.6475 -0.4528
 2545UDC    C1027994  17.547   4.727   3.619 -0.2471 -0.6439 -0.8081
 2545UDC    C1127995  17.632   4.786   3.501  0.7357 -1.0446  0.2481
 2546UDC     C127996  17.367   9.163   9.690  0.2339 -0.9619  0.0900
 2546UDC     C227997  17.302   9.303   9.673 -1.0074  0.9753 -0.1631
 2546UDC     C327998  17.321   9.364   9.531 -1.1475 -1.0458 -0.3492
 2546UDC     C427999  17.247   9.496   9.518 -0.0645 -0.3007  0.3355
 2546UDC     C528000  17.314   9.624   9.559 -0.0606  0.0407 -0.0162
 2546UDC     C628001  17.366   9.630   9.712  0.8642 -1.1923  0.7589
 2546UDC     C728002  17.422   9.766   9.746  0.9896  0.2843  0.1541
 2546UDC     C828003  17.479   9.784   9.886  0.1762 -0.3593  0.2667
 2546UDC     C928004  17.587   9.684   9.924 -0.5975  0.2748 -0.0066
 2546UDC    C1028005  17.695   9.743  10.017 -0.0552  0.3078  0.6968
 2546UDC    C1128006  17.700   9.714  10.168 -0.4780  0.2374 -1.1618
 2547UDC     C128007   2.672  12.107   7.463  1.0102 -0.2697  0.6474
 2547UDC     C228008   2.623  12.033   7.592 -0.0963  0.4343  0.4038
 2547UDC     C328009   2.499  12.096   7.655  0.7253  0.8960  0.3104
 2547UDC     C428010   2.465  12.036   7.796  0.0795 -0.2595  0.5307
 2547UDC     C528011   2.314  12.066   7.814  0.2285 -0.0599  0.1042
 2547UDC     C628012   2.250  11.993   7.936  1.0427  0.3614  0.3302
 2547UDC     C728013   2.095  12.005   7.936  0.4048 -0.1536  0.0140
 2547UDC     C828014   2.003  11.886   7.890 -0.1765 -0.0582  0.4712
 2547UDC     C928015   1.854  11.914   7.866  1.2795  0.6166 -0.4146
 2547UDC    C1028016   1.799  12.049   7.821 -0.2247  0.0143 -0.1531
 2547UDC    C1128017   1.649  12.056   7.800 -0.0017  0.7471 -0.3798
 2548UDC     C128018  13.905  14.554  14.281  0.0639 -0.4083 -1.1000
 2548UDC     C228019  13.777  14.461  14.282  0.2450 -0.6807  0.4958
 2548UDC     C328020  13.684  14.453  14.403 -1.0064 -0.1047 -0.0496
 2548UDC     C428021  13.770  14.386  14.516 -0.1828 -1.1456 -0.5626
 2548UDC     C528022  13.689  14.403  14.647 -0.3329 -0.3443 -0.1622
 2548UDC     C628023  13.600  14.281  14.679  0.3557  0.8399  0.6732
 2548UDC     C728024  13.696  14.164  14.722  0.9975  0.4500  0.7005
 2548UDC     C828025  13.757  14.197  14.859 -0.1775  0.1284 -1.0283
 2548UDC     C928026  13.828  14.094  14.954 -0.1405  0.4169 -0.3173
 2548UDC    C1028027  13.973  14.098  14.960  0.3486  0.2843  0.1674
 2548UDC    C1128028  14.041  14.080  14.824  0.8246  0.6541 -1.0029
 2549UDC     C128029  19.114   8.726  10.936 -0.0031 -0.9156  0.0847
 2549UDC     C228030  19.033   8.725  11.074  0.6164  0.1679  2.1245
 2549UDC     C328031  18.895   8.778  11.057  0.8440  0.2561 -0.5007
 2549UDC     C428032  18.793   8.779  11.177  0.1373  0.2594  0.5720
 2549UDC     C528033  18.665   8.866  11.146  0.2437  0.2879  1.0535
 2549UDC     C628034  18.559   8.801  11.046 -0.6059 -0.4174  0.8764
 2549UDC     C728035  18.516   8.659  11.047 -0.6424  0.4396 -0.3864
 2549UDC     C828036  18.408   8.629  10.936 -0.1310  0.1500  0.0386
 2549UDC     C928037  18.362   8.486  10.923  0.1801  1.4715  0.1687
 2549UDC    C1028038  18.327   8.403  11.051  0.9997 -0.6846  0.1414
 2549UDC    C1128039  18.280   8.256  11.039 -0.4371 -0.3074 -0.5845
 2550UDC     C128040   6.348   5.294   7.419 -0.4745  0.1366 -0.0329
 2550UDC     C228041   6.280   5.195   7.320 -0.1183 -0.5613  0.1356
 2550UDC     C328042   6.389   5.097   7.266  0.1301 -0.3096  1.0357
 2550UDC     C428043   6.483   5.138   7.149  0.3047  0.4842 -1.1469
 2550UDC     C528044   6.436   5.155   7.013  0.3921  0.1606 -0.1935
 2550UDC     C628045   6.522   5.218   6.894  0.2703  0.4600 -0.9409
 2550UDC     C728046   6.460   5.337   6.823 -0.3449 -0.5886  0.7142
 2550UDC     C828047   6.516   5.385   6.692  0.5432  0.3134  0.9001
 2550UDC     C928048   6.649   5.461   6.669  0.1498  0.4835 -0.8354
 2550UDC    C1028049   6.769   5.379   6.611  0.7080 -0.4496  0.6827
 2550UDC    C1128050   6.899   5.458   6.590  0.1278 -0.5845 -0.0726
 2551UDC     C128051   8.098   2.797   1.063 -0.1567  0.4516 -0.5792
 2551UDC     C228052   7.980   2.842   0.967  0.4346 -0.0333  0.1769
 2551UDC     C328053   8.010   2.965   0.870  0.9645  0.6078 -0.5823
 2551UDC     C428054   8.068   2.944   0.735 -0.4583 -0.6276 -0.1258
 2551UDC     C528055   8.154   3.067   0.689  1.4538 -0.0661 -1.2594
 2551UDC     C628056   8.270   3.090   0.792  0.4836 -0.4897 -0.7461
 2551UDC     C728057   8.398   3.003   0.777 -0.2905 -0.1079 -0.3938
 2551UDC     C828058   8.537   3.066   0.789  0.0594 -0.0955  0.0809
 2551UDC     C928059   8.632   2.945   0.813  0.5889 -0.4457  0.1960
 2551UDC    C1028060   8.772   2.998   0.829  0.1516  0.4173 -0.6978
 2551UDC    C1128061   8.877   2.889   0.876  0.5617 -0.3608 -0.8869
 2552UDC     C128062  16.583  12.944  13.035 -0.6826  1.0846 -0.5407
 2552UDC     C228063  16.684  12.893  13.147 -0.0075 -0.2864  0.7251
 2552UDC     C328064  16.741  13.000  13.241 -0.2484 -0.5334 -0.5237
 2552UDC     C428065  16.863  12.959  13.318 -0.0570  0.5074  0.2805
 2552UDC     C528066  16.898  13.059  13.432 -0.0203  0.8351 -0.1465
 2552UDC     C628067  16.839  13.021  13.566  0.0084 -0.3481 -0.0843
 2552UDC     C728068  16.884  13.120  13.672  0.3998 -1.1267 -0.9070
 2552UDC     C828069  17.037  13.120  13.703 -0.0266  0.2088  1.4417
 2552UDC     C928070  17.062  13.221  13.813 -0.0190 -0.7287 -0.7565
 2552UDC    C1028071  17.218  13.226  13.844 -0.4884 -0.8887 -0.6038
 2552UDC    C1128072  17.288  13.356  13.892  0.6929  0.3116  0.2470
 2553UDC     C128073  11.191   2.124   6.540  0.7978 -0.2182  0.3710
 2553UDC     C228074  11.319   2.070   6.600 -0.6891 -0.4316  0.5611
 2553UDC     C328075  11.284   1.986   6.724  0.9689 -0.1069 -0.6098
 2553UDC     C428076  11.369   2.032   6.845  0.6530 -0.3716  0.4613
 2553UDC     C528077  11.449   1.914   6.898 -0.8001  0.1519  0.2098
 2553UDC     C628078  11.411   1.814   7.014 -0.7235  0.9195  0.6877
 2553UDC     C728079  11.527   1.708   7.026 -0.6688 -0.3154 -0.7654
 2553UDC     C828080  11.644   1.789   7.092 -0.8340 -0.2495  0.0225
 2553UDC     C928081  11.787   1.747   7.096 -0.7487 -0.1567  0.3600
 2553UDC    C1028082  11.804   1.644   7.211  0.3061  0.3043  0.5543
 2553UDC    C1128083  11.796   1.702   7.353 -0.3164  0.5109  0.6071
 2554UDC     C128084   8.096  19.566  13.653 -0.1630  0.1973 -0.4921
 2554UDC     C228085   7.955  19.598  13.608  0.7326  0.7028  0.1693
 2554UDC     C328086   7.923  19.745  13.652  0.6421  0.8743 -0.4868
 2554UDC     C428087   7.881  19.753  13.805  0.2349 -0.5885  1.3799
 2554UDC     C528088   7.729  19.716  13.836 -0.4636 -0.1945  0.8740
 2554UDC     C628089   7.661  19.755  13.969  0.7846 -1.0585  0.2179
 2554UDC     C728090   7.704  19.683  14.095 -0.4840  0.4302 -0.3135
 2554UDC     C828091   7.823  19.751  14.160 -0.9709  0.3390  0.8090
 2554UDC     C928092   7.836  19.771  14.311 -0.0059 -0.2816 -1.0136
 2554UDC    C1028093   7.960  19.818  14.386 -0.1417  0.1208 -0.6041
 2554UDC    C1128094   8.044  19.694  14.433  0.0043 -0.1355 -0.7358
 2555UDC     C128095  18.057   8.580  14.095 -0.3014  0.2180  0.4236
 2555UDC     C228096  17.981   8.652  14.207  0.2382 -1.0772  0.8996
 2555UDC     C328097  18.019   8.572  14.336  0.8063  0.7255  1.0226
 2555UDC     C428098  17.904   8.491  14.393 -0.0078  1.5973  0.3989
 2555UDC     C528099  17.808   8.578  14.478  1.1574 -0.0099  0.0188
 2555UDC     C628100  17.845   8.619  14.622  0.3914  0.3945  0.1975
 2555UDC     C728101  17.896   8.482  14.680  0.0670 -0.9697  0.6093
 2555UDC     C828102  17.924   8.459  14.833  0.2955  0.0293  0.4747
 2555UDC     C928103  17.966   8.324  14.885 -0.2399  0.3254  0.0667
 2555UDC    C1028104  18.084   8.332  14.988  0.0510  0.5699  0.9467
 2555UDC    C1128105  18.113   8.198  15.059 -0.1831  0.4203 -0.8584
 2556UDC     C128106   9.189   8.524   9.868  0.8131  0.4851  0.8483
 2556UDC     C228107   9.262   8.525  10.002 -0.7321  0.5804 -0.8807
 2556UDC     C328108   9.165   8.555  10.112  0.4839 -0.4986 -1.0837
 2556UDC     C428109   9.162   8.696  10.178 -0.1162  0.1135 -0.8836
 2556UDC     C528110   9.114   8.816  10.091  0.1127 -0.5364 -1.3535
 2556UDC     C628111   8.982   8.769  10.028  0.5537 -0.0116 -1.5622
 2556UDC     C728112   8.885   8.883  10.021  1.6554  1.0628 -0.7614
 2556UDC     C828113   8.922   9.024   9.987  0.8774 -0.2853  0.4896
 2556UDC     C928114   8.790   9.108   9.976  0.1161  0.3701 -0.5205
 2556UDC    C1028115   8.786   9.220   9.871  0.7353  0.6377  0.0715
 2556UDC    C1128116   8.657   9.313   9.885 -1.2922  0.3399  0.1628
 2557UDC     C128117   5.127  15.006   0.748 -0.4468 -0.2525  0.2082
 2557UDC     C228118   5.123  14.866   0.802  0.1546  0.1353  0.2769
 2557UDC     C328119   5.180  14.749   0.717  0.6736  0.7073 -0.4868
 2557UDC     C428120   5.305  14.688   0.771  0.4458  0.4693 -0.7244
 2557UDC     C528121   5.291  14.600   0.902 -1.0205 -0.6235  0.1445
 2557UDC     C628122   5.436  14.549   0.928 -0.2803  0.7996 -0.5120
 2557UDC     C728123   5.471  14.506   1.067 -0.3726  0.0619 -0.9414
 2557UDC     C828124   5.614  14.492   1.103 -0.2122  0.0527  0.3632
 2557UDC     C928125   5.642  14.451   1.247 -1.2456  0.5638  0.5993
 2557UDC    C1028126   5.786  14.425   1.286  0.0391 -0.3187 -0.0089
 2557UDC    C1128127   5.861  14.302   1.226 -0.1252  0.4293  0.7889
 2558UDC     C128128  12.619   8.608  14.464  1.7001  0.4779  0.6281
 2558UDC     C228129  12.495   8.655  14.538 -1.0123 -0.3728  0.4563
 2558UDC     C328130  12.409   8.767  14.480 -0.3222 -0.9005 -0.5058
 2558UDC     C428131  12.274   8.790  14.542 -0.1244  0.2048  0.2315
 2558UDC     C528132  12.173   8.675  14.519 -0.3867  0.2212 -0.6782
 2558UDC     C628133  12.050   8.668  14.614 -0.5031 -0.2468 -1.0219
 2558UDC     C728134  12.097   8.633  14.759  0.5874 -0.9393 -0.4612
 2558UDC     C828135  11.971   8.602  14.840  0.0994 -0.4009  1.1593
 2558UDC     C928136  11.966   8.524  14.973  0.1546 -1.3058 -0.3772
 2558UDC    C1028137  12.080   8.423  14.996  0.6350  0.3040 -0.2435
 2558UDC    C1128138  12.049   8.347  15.134  0.5093 -1.5460 -0.3049
 2559UDC     C128139  16.756  19.623  18.598 -1.0209 -0.4613  1.2863
 2559UDC     C228140  16.833  19.706  18.700  0.7922  0.0942 -0.9683
 2559UDC     C328141  16.985  19.683  18.714  0.6769 -0.6215 -0.0141
 2559UDC     C428142  17.045  19.701  18.572 -0.3193 -0.4604  0.3723
 2559UDC     C528143  17.196  19.687  18.562 -0.5608 -0.3215 -0.5850
 2559UDC     C628144  17.255  19.714  18.419 -0.0834 -0.1177 -0.2281
 2559UDC     C728145  17.166  19.683  18.301  1.6204 -0.0081  1.2574
 2559UDC     C828146  17.214  19.690  18.157 -0.7819  0.1240 -0.1760
 2559UDC     C928147  17.335  19.606  18.104  0.1900 -0.3621 -0.9371
 2559UDC    C1028148  17.308  19.518  17.986 -0.1215  0.1606 -0.7050
 2559UDC    C1128149  17.306  19.604  17.852  0.3806 -0.1691 -0.3543
 2560UDC     C128150  16.721   3.602   7.172 -0.7261 -0.3310  0.0538
 2560UDC     C228151  16.714   3.565   7.027 -0.4322  0.5810 -0.9956
 2560UDC     C328152  16.844   3.576   6.953 -0.1991  0.0240  0.2968
 2560UDC     C428153  16.864   3.491   6.820 -0.3046 -1.1529  0.5358
 2560UDC     C528154  17.001   3.490   6.755  0.2054 -0.1877  0.4158
 2560UDC     C628155  17.026   3.381   6.654 -0.1550  0.1626  1.1632
 2560UDC     C728156  17.052   3.249   6.720 -0.2346  0.1704  0.2998
 2560UDC     C828157  17.201   3.230   6.744  0.3331  0.3804 -0.4801
 2560UDC     C928158  17.290   3.272   6.623  0.7703  0.0197  0.0185
 2560UDC    C1028159  17.430   3.205   6.634  0.5817  0.2327 -0.3677
 2560UDC    C1128160  17.462   3.076   6.543  0.4311 -0.5685 -0.4651
 2561UDC     C128161  12.241   2.113   5.873  0.1442 -0.9392  0.4942
 2561UDC     C228162  12.300   1.973   5.852  0.2686 -0.2091 -0.3735
 2561UDC     C328163  12.457   1.970   5.817  0.0666  0.4822 -0.0170
 2561UDC     C428164  12.513   1.830   5.833  0.1205 -0.6481  1.0348
 2561UDC     C528165  12.655   1.821   5.776 -0.7171 -0.7322  0.0697
 2561UDC     C628166  12.679   1.837   5.621  0.2385  0.2934  0.6484
 2561UDC     C728167  12.825   1.879   5.603 -0.1246  0.5916  0.0908
 2561UDC     C828168  12.854   2.010   5.687  0.8552  1.5205 -0.0187
 2561UDC     C928169  12.986   2.084   5.669  0.1927  0.6003  0.1834
 2561UDC    C1028170  12.998   2.220   5.725  0.2376  0.1841 -0.3930
 2561UDC    C1128171  13.144   2.281   5.736 -0.5827  0.6097 -0.5909
 2562UDC     C128172  19.956   4.268  10.120 -0.4470 -0.3705  0.5633
 2562UDC     C228173  19.879   4.245  10.253  0.1689 -1.0042 -0.7555
 2562UDC     C328174  19.766   4.136  10.276 -0.6807  0.0331  0.7325
 2562UDC     C428175  19.678   4.190  10.381 -0.3681 -0.2078  0.6198
 2562UDC     C528176  19.539   4.135  10.399  1.6762  0.1708 -0.1009
 2562UDC     C628177  19.466   4.178  10.529 -0.3914 -0.4771  1.0382
 2562UDC     C728178  19.376   4.072  10.585 -1.7556  0.1804  0.5102
 2562UDC     C828179  19.257   4.134  10.657 -0.1054  0.0071 -1.3501
 2562UDC     C928180  19.310   4.213  10.784  0.3630  1.4892 -1.0339
 2562UDC    C1028181  19.203   4.287  10.870 -0.3294 -0.0901  0.0582
 2562UDC    C1128182  19.230   4.410  10.952 -0.3807  0.1499 -0.2496
 2563UDC     C128183  14.967  10.145  12.330  0.3937 -0.3531 -0.3314
 2563UDC     C228184  14.964  10.294  12.288 -0.1462  0.1852 -1.0793
 2563UDC     C328185  14.876  10.306  12.160 -0.7226  0.4967  0.2076
 2563UDC     C428186  14.898  10.248  12.024 -0.1719  0.4654  0.2074
 2563UDC     C528187  14.789  10.290  11.920  0.5293 -1.1412  0.2448
 2563UDC     C628188  14.775  10.447  11.897 -0.6205  0.1848  0.3078
 2563UDC     C728189  14.626  10.486  11.861  0.1123  0.0633 -0.1802
 2563UDC     C828190  14.612  10.633  11.813 -0.1799 -0.5045  0.2831
 2563UDC     C928191  14.479  10.699  11.799 -0.0816  0.0363  0.2924
 2563UDC    C1028192  14.432  10.730  11.945 -0.9696 -0.1052 -0.3642
 2563UDC    C1128193  14.518  10.854  11.987  0.8800  0.4139 -0.9706
 2564UDC     C128194  10.506  18.930  18.115 -0.2735 -0.6623  0.5907
 2564UDC     C228195  10.511  18.940  18.267  0.9212 -0.2696 -0.2015
 2564UDC     C328196  10.585  18.810  18.323 -1.0834 -0.5173 -0.5858
 2564UDC     C428197  10.517  18.678  18.312  0.2853  0.2898  0.9946
 2564UDC     C528198  10.390  18.656  18.395 -0.4864 -0.8148  0.5531
 2564UDC     C628199  10.398  18.642  18.550  0.8837  1.2186 -0.3590
 2564UDC     C728200  10.366  18.500  18.599 -0.8073  1.1037  0.0479
 2564UDC     C828201  10.429  18.468  18.730  0.2171  0.7830 -0.6118
 2564UDC     C928202  10.376  18.347  18.811 -0.0914  0.8430 -0.1850
 2564UDC    C1028203  10.408  18.325  18.963 -1.3322  0.0231  0.6844
 2564UDC    C1128204  10.309  18.223  19.020 -0.5898  0.1693 -0.3577
 2565UDC     C128205   4.085  18.381   9.279  0.5798  0.7055  0.0092
 2565UDC     C228206   4.156  18.266   9.364  0.8393 -0.9972 -0.8377
 2565UDC     C328207   4.084  18.136   9.367  0.5986  0.4662  0.7685
 2565UDC     C428208   4.140  18.030   9.266  0.0191 -0.0775 -0.0569
 2565UDC     C528209   4.043  17.910   9.242 -0.8132 -0.4873  0.5897
 2565UDC     C628210   3.908  17.955   9.184  0.3111  0.6119 -0.0724
 2565UDC     C728211   3.794  17.846   9.209 -0.7990 -1.0424  0.4183
 2565UDC     C828212   3.655  17.879   9.172  1.7321 -0.4858  0.1327
 2565UDC     C928213   3.552  17.754   9.180 -0.2381 -0.2432 -0.0352
 2565UDC    C1028214   3.415  17.806   9.166  0.3759 -0.1576 -0.3046
 2565UDC    C1128215   3.303  17.699   9.182 -0.5813  0.1137  0.4406
 2566UDC     C128216  11.544   2.548   4.075 -0.2336  0.6120 -0.2326
 2566UDC     C228217  11.563   2.565   4.222  0.6766 -0.5034 -0.4284
 2566UDC     C328218  11.703   2.576   4.278 -0.5746 -0.0889 -0.1189
 2566UDC     C428219  11.714   2.652   4.417  0.5420 -0.4560  0.2863
 2566UDC     C528220  11.703   2.806   4.396 -0.3147 -0.0714 -0.4066
 2566UDC     C628221  11.805   2.874   4.309 -0.4336  0.3799  1.6574
 2566UDC     C728222  11.785   3.024   4.275  0.5028  1.0572  1.1430
 2566UDC     C828223  11.753   3.112   4.396 -0.4720 -0.2905  0.0112
 2566UDC     C928224  11.713   3.262   4.372  0.5300  0.3745  0.3663
 2566UDC    C1028225  11.603   3.281   4.264  0.3280 -0.0719 -1.1123
 2566UDC    C1128226  11.487   3.200   4.324  0.5268  0.1386 -0.0017
 2567UDC     C128227   0.566  17.369   8.042 -0.5902  0.0446  0.0424
 2567UDC     C228228   0.546  17.356   7.888  0.3485 -1.0047 -0.2682
 2567UDC     C328229   0.603  17.226   7.831  0.0911 -0.5406 -0.7861
 2567UDC     C428230   0.534  17.113   7.918  0.2154 -0.2858 -0.7439
 2567UDC     C528231   0.563  16.965   7.890 -0.4833 -1.1009 -0.6547
 2567UDC     C628232   0.545  16.915   7.749 -0.6422  0.2176 -0.4414
 2567UDC     C728233   0.407  16.919   7.689  0.2151 -0.1100 -0.6345
 2567UDC     C828234   0.383  16.963   7.546 -0.2008 -1.0628  0.4808
 2567UDC     C928235   0.233  16.948   7.508  0.8233 -0.1376  1.4419
 2567UDC    C1028236   0.173  16.804   7.507  0.9232  0.3077  0.1149
 2567UDC    C1128237   0.050  16.756   7.437 -0.8612  0.1085  0.5399
 2568UDC     C128238  12.070   7.490   5.904 -0.5208 -0.5739 -0.7867
 2568UDC     C228239  11.976   7.472   5.776  0.0844 -0.4541  0.6116
 2568UDC     C328240  11.849   7.396   5.801  0.3883  0.6635  0.0015
 2568UDC     C428241  11.751   7.496   5.851  0.6005  0.0075 -0.7363
 2568UDC     C528242  11.699   7.579   5.735 -0.9409 -0.1509 -0.2135
 2568UDC     C628243  11.589   7.686   5.774  0.4122  0.0519 -0.6744
 2568UDC     C728244  11.476   7.608   5.844 -0.0569 -0.0958  0.2373
 2568UDC     C828245  11.357   7.705   5.853  1.1101 -0.6349 -0.2579
 2568UDC     C928246  11.204   7.670   5.833 -1.1867  0.2090 -0.3321
 2568UDC    C1028247  11.144   7.607   5.959  0.3277  0.1020  0.0147
 2568UDC    C1128248  11.148   7.454   5.970 -0.2212  0.4476 -0.5754
 2569UDC     C128249   6.549  10.631   6.830 -0.5928  0.9994 -0.7870
 2569UDC     C228250   6.533  10.484   6.871 -0.6117 -0.7824  0.6194
 2569UDC     C328251   6.416  10.420   6.794  0.3575  0.7733 -0.3566
 2569UDC     C428252   6.412  10.274   6.836  0.3763 -1.5386 -1.1797
 2569UDC     C528253   6.430  10.260   6.988  0.3930 -0.0572  0.1200
 2569UDC     C628254   6.428  10.118   7.038  0.0631  0.8736 -0.0616
 2569UDC     C728255   6.524  10.031   6.956  0.0083  0.9935 -0.4005
 2569UDC     C828256   6.538   9.883   7.001  0.4090  0.1953  0.1907
 2569UDC     C928257   6.425   9.795   6.945  0.1202 -0.9864  0.1335
 2569UDC    C1028258   6.433   9.646   6.989  0.9819 -0.2533 -0.3218
 2569UDC    C1128259   6.480   9.651   7.129 -0.3313 -0.7283  1.0095
 2570UDC     C128260  19.321  18.657   0.734 -0.4190  0.1627  0.5380
 2570UDC     C228261  19.377  18.733   0.614  0.4254 -0.4423  0.4094
 2570UDC     C328262  19.357  18.887   0.612 -0.1484  0.3819  0.9263
 2570UDC     C428263  19.436  18.948   0.498  0.0098  1.1354 -0.0404
 2570UDC     C528264  19.532  19.070   0.533  0.3046 -0.0508 -0.4825
 2570UDC     C628265  19.462  19.206   0.537 -0.6913  0.3149  1.5065
 2570UDC     C728266  19.556  19.318   0.593  0.0731 -0.6665  0.1426
 2570UDC     C828267  19.669  19.366   0.498  1.1659 -0.3989 -0.0307
 2570UDC     C928268  19.740  19.483   0.550  0.1758 -0.0759 -0.5615
 2570UDC    C1028269  19.837  19.562   0.459 -0.0775 -0.9036  0.1020
 2570UDC    C1128270  19.907  19.692   0.505  0.6286  0.8747 -0.2726
 2571UDC     C128271  11.788   5.502  12.686 -0.6436  0.1653  0.8545
 2571UDC     C228272  11.933   5.457  12.741  0.8093 -0.5240  0.1408
 2571UDC     C328273  12.033   5.573  12.757  0.4786  0.7167 -1.3091
 2571UDC     C428274  12.176   5.511  12.771  0.3506 -0.3325  0.1961
 2571UDC     C528275  12.307   5.592  12.796  0.5554 -0.3305 -0.3040
 2571UDC     C628276  12.323   5.643  12.940 -0.4919 -0.4976 -0.1830
 2571UDC     C728277  12.461   5.698  12.956  0.9949  0.7513  0.1082
 2571UDC     C828278  12.574   5.596  12.927  0.2918  0.2422  0.6796
 2571UDC     C928279  12.698   5.594  13.021  0.3587  0.3021  0.4219
 2571UDC    C1028280  12.796   5.491  12.973 -0.2524  0.7661  1.1517
 2571UDC    C1128281  12.896   5.448  13.083  0.1846 -0.0628 -0.7243
 2572UDC     C128282   4.818   0.146   9.904 -0.4656  0.5293  0.3712
 2572UDC     C228283   4.800   0.113  10.057  1.1374 -0.7311  0.1692
 2572UDC     C328284   4.908   0.014  10.082  0.6762  0.2832 -0.0469
 2572UDC     C428285   5.049   0.082  10.095  0.4734  0.2996 -1.0113
 2572UDC     C528286   5.167  -0.029  10.106  0.5822 -0.2456 -0.5360
 2572UDC     C628287   5.242  -0.018  10.236 -0.2445 -0.0422 -1.0421
 2572UDC     C728288   5.148  -0.036  10.359 -0.1190 -0.0084  0.1925
 2572UDC     C828289   5.089  -0.179  10.366 -0.0801 -0.4076  0.3275
 2572UDC     C928290   5.054  -0.204  10.514 -0.1023 -0.3506  0.3363
 2572UDC    C1028291   5.159  -0.215  10.622  1.7529 -0.6023 -0.7561
 2572UDC    C1128292   5.212  -0.357  10.652  0.6080 -0.5298  0.4211
 2573UDC     C128293  14.984   2.837  16.691 -0.6958  0.6173 -0.4208
 2573UDC     C228294  14.940   2.721  16.790  0.0846  0.8209  0.0992
 2573UDC     C328295  15.071   2.663  16.855  0.2418 -1.1172 -1.0337
 2573UDC     C428296  15.110   2.716  16.993 -0.7497 -0.3783  0.1463
 2573UDC     C528297  15.235   2.813  16.978 -0.6719 -0.1260 -0.9568
 2573UDC     C628298  15.376   2.770  16.928 -0.8736  0.1873 -1.2213
 2573UDC     C728299  15.427   2.682  17.038  0.3492  0.2676  0.3375
 2573UDC     C828300  15.572   2.661  17.040 -1.5151 -0.0413  0.0159
 2573UDC     C928301  15.613   2.592  16.908  0.7878  0.1379  0.7050
 2573UDC    C1028302  15.747   2.525  16.889 -0.8415 -1.0596 -1.7123
 2573UDC    C1128303  15.869   2.627  16.911  0.6213  1.4183 -0.0598
 2574UDC     C128304  14.797  11.220   1.078  0.1182 -1.1989 -0.2923
 2574UDC     C228305  14.712  11.338   1.120  0.2520  0.5181 -0.6055
 2574UDC     C328306  14.811  11.451   1.150 -0.0717 -0.3117  0.0852
 2574UDC     C428307  14.744  11.570   1.229 -0.0766  0.0356  0.4272
 2574UDC     C528308  14.818  11.705   1.219 -0.0255 -0.4307  0.7310
 2574UDC     C628309  14.831  11.767   1.081 -0.2714 -1.1131  0.7583
 2574UDC     C728310  14.692  11.828   1.048 -0.1612  0.8969 -0.1781
 2574UDC     C828311  14.681  11.971   1.096 -0.3762 -0.6523 -0.0152
 2574UDC     C928312  14.558  12.056   1.056  0.5988 -1.1571 -0.0316
 2574UDC    C1028313  14.543  12.058   0.903  0.1139  0.0597 -0.0924
 2574UDC    C1128314  14.437  12.140   0.831 -1.1062 -0.9119 -0.2779
 2575UDC     C128315   5.367   7.218  16.072  0.0503  0.0353 -0.5141
 2575UDC     C228316   5.399   7.172  16.220  0.5169  0.6494 -0.4340
 2575UDC     C328317   5.257   7.152  16.287  0.3896  0.4425  0.0336
 2575UDC     C428318   5.251   7.157  16.445 -0.5777  0.5733  1.1077
 2575UDC     C528319   5.143   7.267  16.495 -0.0167 -0.1590  1.0078
 2575UDC     C628320   5.183   7.418  16.469 -0.6747  0.2186 -0.5456
 2575UDC     C728321   5.062   7.507  16.478  0.3751  0.4002  0.1037
 2575UDC     C828322   5.092   7.656  16.507 -0.7740  0.1570  0.3391
 2575UDC     C928323   5.184   7.711  16.403  0.5615 -0.3815  0.4881
 2575UDC    C1028324   5.236   7.855  16.423 -0.9349  0.4948 -0.3231
 2575UDC    C1128325   5.355   7.851  16.524 -0.4148  0.3532 -0.0716
 2576UDC     C128326   3.993   9.468   4.964  0.0791  1.0696  0.5966
 2576UDC     C228327   3.936   9.565   5.066  0.8281 -0.1342 -0.0550
 2576UDC     C328328   3.886   9.478   5.189  0.4365  0.2073  0.8950
 2576UDC     C428329   3.852   9.531   5.331  0.4267  0.5956  0.1568
 2576UDC     C528330   3.756   9.457   5.421  0.4054 -0.4614 -0.7056
 2576UDC     C628331   3.820   9.347   5.505  0.5878  0.0607  0.2386
 2576UDC     C728332   3.840   9.208   5.442 -1.5521  1.2359  0.6563
 2576UDC     C828333   3.917   9.117   5.541  0.5921 -0.0435  0.2779
 2576UDC     C928334   3.979   8.986   5.475 -0.5530  0.5192 -0.7742
 2576UDC    C1028335   4.090   8.940   5.571 -0.7383  0.6408  0.8599
 2576UDC    C1128336   4.020   8.896   5.704  0.3799  0.6116 -0.2733
 2577UDC     C128337   1.912  12.619   8.988 -0.1988  0.4857 -1.1316
 2577UDC     C228338   1.939  12.464   9.020 -0.3818 -0.3670 -0.2885
 2577UDC     C328339   2.061  12.436   9.104  0.4184 -0.8916 -0.2116
 2577UDC     C428340   2.115  12.290   9.122 -0.7138  0.6879 -0.1802
 2577UDC     C528341   2.249  12.297   9.199 -0.3571  0.5168 -2.0001
 2577UDC     C628342   2.226  12.360   9.342  0.4841 -0.3239  0.3603
 2577UDC     C728343   2.351  12.411   9.405  0.5315 -0.3474 -0.4745
 2577UDC     C828344   2.426  12.520   9.344 -0.6216  0.0185 -0.1934
 2577UDC     C928345   2.509  12.604   9.435 -1.3575  0.1354  0.5468
 2577UDC    C1028346   2.609  12.542   9.530 -0.3063 -0.0404 -0.9345
 2577UDC    C1128347   2.629  12.636   9.649  0.0246 -0.8718 -0.3856
 2578UDC     C128348  13.691  10.983  13.351  1.6293  0.1710  0.7125
 2578UDC     C228349  13.690  11.086  13.467 -0.7429 -0.4420  0.4444
 2578UDC     C328350  13.713  11.230  13.413 -0.6982 -0.2864  0.1458
 2578UDC     C428351  13.851  11.275  13.401 -0.2333 -0.3327  0.0786
 2578UDC     C528352  13.870  11.409  13.331 -0.8273 -0.3168 -0.2941
 2578UDC     C628353  14.002  11.470  13.372  0.0064 -0.5312 -1.0658
 2578UDC     C728354  14.010  11.622  13.376 -0.2462 -0.2405 -0.1983
 2578UDC     C828355  14.145  11.681  13.427  0.8642 -0.0266  0.2494
 2578UDC     C928356  14.120  11.831  13.437  0.4419  0.7129 -0.9305
 2578UDC    C1028357  14.006  11.859  13.531  0.0510 -0.0691 -0.6658
 2578UDC    C1128358  14.022  11.776  13.665 -0.0740  1.3030  0.3818
 2579UDC     C128359  10.471  19.661   6.011  0.3160  0.1737 -0.0592
 2579UDC     C228360  10.504  19.815   5.989  0.2374  0.7246 -0.1894
 2579UDC     C328361  10.364  19.872   6.013  0.6552  0.0179  0.3086
 2579UDC     C428362  10.363  20.021   5.976  0.0337 -0.5113 -0.5599
 2579UDC     C528363  10.225  20.092   5.986  0.0262  0.1633  0.5468
 2579UDC     C628364  10.152  20.103   6.120  0.7546 -0.1656  0.3973
 2579UDC     C728365  10.093  20.247   6.148  0.1339 -0.0679  0.8503
 2579UDC     C828366   9.979  20.307   6.070 -0.0718  0.2785 -0.6582
 2579UDC     C928367   9.958  20.454   6.113  0.2955 -0.0072  1.0206
 2579UDC    C1028368  10.045  20.560   6.052 -0.2035  0.2976  0.3397
 2579UDC    C1128369   9.999  20.705   6.081 -0.7774 -0.4813 -1.0171
 2580UDC     C128370   1.981   0.619   3.361  0.2290  0.3678 -0.5280
 2580UDC     C228371   2.050   0.745   3.328 -0.0025  0.4653 -0.8626
 2580UDC     C328372   2.075   0.785   3.181 -0.1211  1.1706 -0.0545
 2580UDC     C428373   1.947   0.749   3.104 -0.8430 -0.4725 -0.3803
 2580UDC     C528374   1.967   0.790   2.952 -0.1608 -0.7099 -0.7864
 2580UDC     C628375   1.903   0.690   2.847 -0.8495 -0.8061  0.2781
 2580UDC     C728376   1.933   0.725   2.700 -0.0188 -0.4443  1.1099
 2580UDC     C828377   1.881   0.599   2.636  0.6624  0.7197 -0.0144
 2580UDC     C928378   1.898   0.581   2.480  0.3967 -0.5589 -0.0960
 2580UDC    C1028379   1.816   0.463   2.443 -0.4477  1.3876 -0.2464
 2580UDC    C1128380   1.900   0.348   2.396 -0.0196  0.5056  1.0909
 2581UDC     C128381  18.039   7.849  10.812  0.1713 -0.5255 -0.8004
 2581UDC     C228382  18.145   7.896  10.716 -0.3046  0.1270 -0.3591
 2581UDC     C328383  18.232   8.020  10.722 -1.8075 -0.3010 -0.5475
 2581UDC     C428384  18.162   8.146  10.752  0.6538 -0.0746  0.1939
 2581UDC     C528385  18.080   8.166  10.614  0.0859  0.1112 -0.5830
 2581UDC     C628386  17.962   8.268  10.630 -0.0047 -0.2610 -0.1189
 2581UDC     C728387  17.885   8.298  10.496 -0.2220  0.1700 -1.3247
 2581UDC     C828388  17.761   8.374  10.540  1.6316 -0.3654  0.9415
 2581UDC     C928389  17.682   8.299  10.649  0.2422  0.3700  1.5147
 2581UDC    C1028390  17.554   8.253  10.585  0.1784 -1.2693 -0.1759
 2581UDC    C1128391  17.437   8.347  10.570  0.5985  0.8376 -0.0631
 2582UDC     C128392  13.251  17.018  12.806 -0.6817  0.4046  0.1083
 2582UDC     C228393  13.135  17.076  12.724 -0.0578  0.2611  0.1960
 2582UDC     C328394  13.171  17.190  12.627 -0.6629  0.6898  0.7300
 2582UDC     C428395  13.220  17.325  12.681  0.0078 -0.3790  0.1221
 2582UDC     C528396  13.098  17.401  12.747 -1.2737  0.4172  1.2864
 2582UDC     C628397  13.121  17.545  12.792  0.3628 -0.4645 -0.2858
 2582UDC     C728398  13.146  17.642  12.673  0.9496  0.4140  0.7024
 2582UDC     C828399  13.140  17.791  12.708  1.2115 -0.6643 -0.4951
 2582UDC     C928400  13.265  17.845  12.790  0.5988  0.6664 -0.3451
 2582UDC    C1028401  13.225  17.964  12.882  0.3334  0.2951  0.7985
 2582UDC    C1128402  13.110  17.927  12.977  1.0354 -0.4747  0.7328
 2583UDC     C128403   3.394  10.560  16.252 -0.0416  0.6118  0.5025
 2583UDC     C228404   3.307  10.679  16.272 -0.7500  0.5838  0.0112
 2583UDC     C328405   3.304  10.701  16.418 -0.1104  0.4281  0.9365
 2583UDC     C428406   3.201  10.809  16.457 -0.4764 -0.0863 -0.0672
 2583UDC     C528407   3.143  10.795  16.604 -0.9001 -0.6201  0.6433
 2583UDC     C628408   3.063  10.667  16.612  0.4730 -0.6323 -0.7040
 2583UDC     C728409   2.975  10.653  16.730 -0.4610 -0.8501 -0.9177
 2583UDC     C828410   2.831  10.692  16.697  0.8653 -0.3909 -0.2222
 2583UDC     C928411   2.742  10.726  16.821 -0.1623  0.3398  0.6328
 2583UDC    C1028412   2.685  10.607  16.895  0.0876 -0.0329 -1.6106
 2583UDC    C1128413   2.646  10.498  16.801 -0.0707 -1.5506  0.3200
 2584UDC     C128414   3.551  10.595   3.275 -0.2581 -0.1871  0.4254
 2584UDC     C228415   3.529  10.532   3.130  0.6991  0.6426  0.4413
 2584UDC     C328416   3.390  10.466   3.114 -1.4108  0.4759  1.1285
 2584UDC     C428417   3.387  10.363   2.999 -0.6541 -0.4761 -1.6906
 2584UDC     C528418   3.417  10.418   2.858 -0.2219 -0.1399 -0.9059
 2584UDC     C628419   3.405  10.296   2.765 -0.5418  0.2320  0.0286
 2584UDC     C728420   3.480  10.307   2.625 -0.5788  0.2594 -0.0654
 2584UDC     C828421   3.634  10.326   2.627 -0.7052  0.2333  0.9364
 2584UDC     C928422   3.693  10.400   2.499 -0.9359  0.5040 -0.7464
 2584UDC    C1028423   3.842  10.424   2.516 -0.9902  0.1763  0.1850
 2584UDC    C1128424   3.862  10.577   2.516 -1.4747  0.4763  0.9092
 2585UDC     C128425  17.756  10.325  16.801  0.1110 -0.8971 -0.4595
 2585UDC     C228426  17.839  10.333  16.929  0.6782  0.6747  0.7255
 2585UDC     C328427  17.912  10.467  16.940  0.5557  0.4740 -0.7623
 2585UDC     C428428  17.986  10.496  16.808  0.5607  0.0466  0.9354
 2585UDC     C528429  18.053  10.635  16.819 -0.2987  0.5103 -0.2549
 2585UDC     C628430  17.946  10.740  16.818 -0.3929  0.3114 -0.0145
 2585UDC     C728431  18.001  10.877  16.780  0.4724 -0.1551 -0.6663
 2585UDC     C828432  17.928  11.007  16.827 -1.5011 -0.1786 -0.0829
 2585UDC     C928433  17.969  11.117  16.725  1.3178  0.7492 -0.7492
 2585UDC    C1028434  17.873  11.233  16.741 -0.1484  0.3727 -0.1779
 2585UDC    C1128435  17.743  11.245  16.655  0.1380 -0.6069 -0.8156
 2586UDC     C128436   2.602   5.900   6.755 -0.2903  0.7217 -0.0157
 2586UDC     C228437   2.678   6.028   6.707 -0.2290 -0.8006  1.2433
 2586UDC     C328438   2.741   6.091   6.829 -0.7834  0.2021  1.2467
 2586UDC     C428439   2.898   6.078   6.834 -0.3418  0.0724  0.7861
 2586UDC     C528440   2.989   5.945   6.843 -0.5798 -1.5410  0.2204
 2586UDC     C628441   3.120   5.956   6.764  1.4062  0.4111  0.1626
 2586UDC     C728442   3.104   5.988   6.612 -0.5270 -0.2007 -1.4529
 2586UDC     C828443   3.196   5.887   6.544  0.8995  0.6055 -0.2418
 2586UDC     C928444   3.152   5.763   6.469 -0.2001  0.8416  0.7758
 2586UDC    C1028445   3.287   5.685   6.468  0.1068 -0.5089 -0.1783
 2586UDC    C1128446   3.267   5.537   6.438 -0.0794  0.5911  0.1475
 2587UDC     C128447   5.987   0.489  18.824  0.2466  0.3995  0.7009
 2587UDC     C228448   5.966   0.573  18.957  0.7283 -0.5430 -0.8006
 2587UDC     C328449   6.087   0.666  18.982 -0.5021 -0.2319 -0.4060
 2587UDC     C428450   6.179   0.594  19.076 -0.7024 -2.1883 -0.3723
 2587UDC     C528451   6.102   0.497  19.163 -1.1749  0.3093  0.4886
 2587UDC     C628452   6.052   0.541  19.300 -0.1473  0.2042 -0.5691
 2587UDC     C728453   5.942   0.437  19.336 -0.7214  0.1383 -0.7738
 2587UDC     C828454   5.989   0.292  19.355 -0.4773  0.9796 -0.0653
 2587UDC     C928455   5.997   0.266  19.513  0.0019  1.2725  1.4720
 2587UDC    C1028456   6.109   0.162  19.556 -1.6911 -0.3754  0.2963
 2587UDC    C1128457   6.104   0.088  19.685  0.4985 -0.2165  0.9534
 2588UDC     C128458   4.394   0.111   1.966  0.7743 -0.7674 -0.2719
 2588UDC     C228459   4.315  -0.016   1.951 -0.6405  0.4100 -0.1102
 2588UDC     C328460   4.413  -0.127   1.955 -0.0139  0.5472 -0.2057
 2588UDC     C428461   4.527  -0.133   1.857 -0.7653  0.3481 -0.0003
 2588UDC     C528462   4.511  -0.171   1.712  0.3554 -1.0894  0.0841
 2588UDC     C628463   4.639  -0.219   1.637  0.0514 -0.9475 -0.0904
 2588UDC     C728464   4.662  -0.367   1.666  0.1967  1.6804  0.3918
 2588UDC     C828465   4.576  -0.477   1.592 -0.0868  0.1091  0.3345
 2588UDC     C928466   4.591  -0.613   1.652 -0.1178  0.7146  0.9086
 2588UDC    C1028467   4.587  -0.618   1.806  0.2417 -0.5286 -0.7947
 2588UDC    C1128468   4.628  -0.756   1.854 -0.0555 -0.6902  0.7749
 2589UDC     C128469  18.998  10.994   3.946  0.6949  0.5794  0.3344
 2589UDC     C228470  18.937  10.853   3.958  1.2508  0.0202  0.2347
 2589UDC     C328471  18.970  10.767   3.841 -0.6207 -0.8522 -0.0048
 2589UDC     C428472  18.879  10.646   3.824 -0.5842  0.0115 -0.1869
 2589UDC     C528473  18.940  10.546   3.729  0.6178 -0.6328  0.2003
 2589UDC     C628474  18.907  10.389   3.745 -0.2053 -0.3052  0.4526
 2589UDC     C728475  18.778  10.373   3.827  0.2216  0.2795 -1.3123
 2589UDC     C828476  18.737  10.228   3.822  0.3154 -0.3839 -0.3103
 2589UDC     C928477  18.736  10.169   3.675 -0.1634 -0.4459  0.2887
 2589UDC    C1028478  18.761  10.022   3.662 -0.0201 -0.2517  0.5318
 2589UDC    C1128479  18.631   9.937   3.629 -0.1659  0.5371 -0.2511
 2590UDC     C128480  17.810  14.363   8.509 -0.4351 -0.0859  0.1750
 2590UDC     C228481  17.713  14.399   8.637 -0.0588  0.1786 -0.2175
 2590UDC     C328482  17.786  14.349   8.766  0.7875 -0.3355 -0.7550
 2590UDC     C428483  17.930  14.412   8.784 -0.0600  0.5146  0.0038
 2590UDC     C528484  17.915  14.551   8.840 -1.7842 -0.2109  1.0907
 2590UDC     C628485  17.842  14.542   8.974  0.9618 -0.4278  0.9127
 2590UDC     C728486  17.803  14.678   9.019 -0.1586 -1.5519 -1.1006
 2590UDC     C828487  17.742  14.703   9.160  0.3437  0.7281  0.3877
 2590UDC     C928488  17.847  14.677   9.264 -0.6540 -0.3360 -0.0229
 2590UDC    C1028489  17.791  14.696   9.400  1.0895  1.3276 -0.0456
 2590UDC    C1128490  17.893  14.654   9.506  0.4710 -0.6066  0.8944
 2591UDC     C128491  14.041   6.354  19.658 -0.3998 -0.3383 -0.6732
 2591UDC     C228492  14.096   6.387  19.514 -0.3064  0.1841 -0.9962
 2591UDC     C328493  13.985   6.372  19.402 -0.1365 -0.0895  0.3206
 2591UDC     C428494  14.058   6.341  19.265  0.2436 -0.6422  1.3383
 2591UDC     C528495  13.964   6.322  19.142 -0.1159 -1.4029  0.0843
 2591UDC     C628496  14.042   6.325  19.004  0.4983 -1.0498 -0.2802
 2591UDC     C728497  13.968   6.314  18.877  0.0399 -0.4949 -0.1416
 2591UDC     C828498  14.034   6.242  18.758 -0.7370 -0.1085  1.0706
 2591UDC     C928499  14.051   6.334  18.638  0.3111  0.8522  1.0136
 2591UDC    C1028500  14.063   6.269  18.503  0.5172 -0.3912  0.6184
 2591UDC    C1128501  14.066   6.390  18.398  0.0848  0.0421  0.2361
 2592UDC     C128502  18.568  17.248  16.580  0.0389  0.9598 -0.1926
 2592UDC     C228503  18.664  17.369  16.586  0.9398 -0.1107  0.9787
 2592UDC     C328504  18.603  17.508  16.622  0.3622  0.6202  0.7314
 2592UDC     C428505  18.560  17.496  16.763 -1.3377  1.1993  0.0666
 2592UDC     C528506  18.682  17.460  16.846 -0.2546 -1.2683 -0.0808
 2592UDC     C628507  18.669  17.474  17.008  0.2865  0.8250 -0.9512
 2592UDC     C728508  18.801  17.451  17.085 -0.4617 -0.3725  0.8893
 2592UDC     C828509  18.844  17.300  17.088  0.8390 -0.7700  0.1097
 2592UDC     C928510  18.986  17.257  17.141  0.0115 -0.4258  1.5056
 2592UDC    C1028511  19.008  17.228  17.297  0.0121 -0.3011  0.5438
 2592UDC    C1128512  18.882  17.211  17.376  0.9126  0.2711  0.4446
 2593UDC     C128513  13.143  12.046  16.949 -1.2732  0.6626 -0.3849
 2593UDC     C228514  13.258  12.085  16.852 -0.6374  0.5587  1.3996
 2593UDC     C328515  13.234  12.124  16.706 -0.6458 -0.2162 -1.3183
 2593UDC     C428516  13.359  12.081  16.638 -0.0569  0.3699  0.9749
 2593UDC     C528517  13.470  12.048  16.743 -0.0429  0.0044 -0.3535
 2593UDC     C628518  13.575  11.934  16.722 -0.2819  0.2008  0.2672
 2593UDC     C728519  13.699  11.899  16.819 -0.9155 -0.2178 -0.5979
 2593UDC     C828520  13.666  11.904  16.975  0.2113  0.5824  0.2212
 2593UDC     C928521  13.646  12.039  17.034  0.6213 -0.0438 -0.6051
 2593UDC    C1028522  13.576  12.034  17.172  0.0356 -0.3375  0.3207
 2593UDC    C1128523  13.568  12.174  17.238 -0.5659  0.5119 -0.3600
 2594UDC     C128524   4.739  18.697  11.866  0.8682  0.6973  0.2326
 2594UDC     C228525   4.884  18.685  11.811  0.5884  0.1862  0.1748
 2594UDC     C328526   4.934  18.566  11.723  0.3649 -0.0302  0.3020
 2594UDC     C428527   4.837  18.498  11.632  0.6529  0.1937 -0.3864
 2594UDC     C528528   4.760  18.593  11.539  1.5126  0.2242  0.1078
 2594UDC     C628529   4.713  18.508  11.416 -1.3004 -0.3113 -0.1042
 2594UDC     C728530   4.689  18.567  11.276 -0.5220 -0.1833  0.9325
 2594UDC     C828531   4.562  18.653  11.276  0.5749  0.1335 -1.0285
 2594UDC     C928532   4.488  18.632  11.139  0.4383 -0.6172  0.5453
 2594UDC    C1028533   4.388  18.745  11.111 -0.7737 -1.0655  0.9773
 2594UDC    C1128534   4.415  18.885  11.171  0.4128 -0.2132  0.9282
 2595UDC     C128535  15.062   5.733  16.989 -0.0131  0.5283 -0.2227
 2595UDC     C228536  15.165   5.694  17.097 -0.1958  0.1540 -0.0333
 2595UDC     C328537  15.318   5.710  17.080 -0.2293  0.3562  0.0466
 2595UDC     C428538  15.393   5.650  17.188 -0.0612 -0.1945 -0.3323
 2595UDC     C528539  15.526   5.570  17.162  0.2172 -1.2460  0.1114
 2595UDC     C628540  15.589   5.601  17.033  0.0475 -0.5018  0.5931
 2595UDC     C728541  15.674   5.485  16.987 -0.3228 -0.2511  0.9097
 2595UDC     C828542  15.688   5.501  16.830  0.3230 -0.7637  0.2506
 2595UDC     C928543  15.754   5.388  16.759  0.0684 -0.7721  0.2850
 2595UDC    C1028544  15.908   5.365  16.787  0.2306  0.0468  1.1765
 2595UDC    C1128545  16.012   5.436  16.710  0.1551  0.1176  0.4537
 2596UDC     C128546   8.683   3.640   6.307 -0.1983  0.3597 -0.5707
 2596UDC     C228547   8.765   3.751   6.233 -0.4072  0.1631 -0.3286
 2596UDC     C328548   8.780   3.884   6.303 -0.2043 -1.1612 -0.2647
 2596UDC     C428549   8.633   3.925   6.333 -0.5213  0.0955  0.6768
 2596UDC     C528550   8.602   4.077   6.305  0.5277 -0.1168  0.8113
 2596UDC     C628551   8.451   4.106   6.337 -0.0686  1.1733  0.7718
 2596UDC     C728552   8.404   4.119   6.485 -0.4239  0.7134 -0.2347
 2596UDC     C828553   8.247   4.131   6.493  0.2058  1.6790 -0.6812
 2596UDC     C928554   8.214   4.159   6.640 -0.0522  0.3307 -0.0490
 2596UDC    C1028555   8.249   4.295   6.710  0.1355 -1.4222 -0.3497
 2596UDC    C1128556   8.165   4.300   6.845  1.5455 -0.9023  0.8651
 2597UDC     C128557   2.912   0.837  16.002 -0.1217  0.5961 -0.7116
 2597UDC     C228558   2.776   0.882  16.065  0.1174  0.3406  0.4577
 2597UDC     C328559   2.726   0.817  16.188  0.2474  0.0209 -0.2958
 2597UDC     C428560   2.607   0.733  16.146 -0.7191  1.1211  0.7089
 2597UDC     C528561   2.492   0.714  16.249  0.0264  0.5994  0.4685
 2597UDC     C628562   2.383   0.601  16.216 -0.7775 -0.1920  1.9334
 2597UDC     C728563   2.372   0.557  16.074 -0.0310 -0.3010  1.1389
 2597UDC     C828564   2.243   0.511  16.006 -0.5044 -0.5545  0.2365
 2597UDC     C928565   2.138   0.624  15.986  0.1134  0.3720  0.9834
 2597UDC    C1028566   2.134   0.700  15.849  1.1142  0.2749 -0.1587
 2597UDC    C1128567   2.005   0.655  15.780  1.1992 -0.5236  0.4091
 2598UDC     C128568   4.598   9.352  11.949  0.3002  0.0480 -0.1044
 2598UDC     C228569   4.507   9.227  11.955  0.1393 -0.2416  0.1102
 2598UDC     C328570   4.459   9.221  11.814  1.0837  1.4883  0.2144
 2598UDC     C428571   4.420   9.071  11.799  1.0819  0.2795  0.8867
 2598UDC     C528572   4.428   9.012  11.661 -0.1958 -0.5564  0.9855
 2598UDC     C628573   4.305   8.918  11.652 -0.0616  0.7157 -0.7666
 2598UDC     C728574   4.204   8.959  11.537 -0.8764  0.1607  0.4129
 2598UDC     C828575   4.172   9.108  11.552 -0.0775  0.5438 -0.2292
 2598UDC     C928576   4.133   9.190  11.432  0.3746  0.2146 -0.2753
 2598UDC    C1028577   3.998   9.159  11.357 -0.1048  0.4456  0.7802
 2598UDC    C1128578   3.873   9.187  11.447 -0.5860 -0.5832  0.1559
 2599UDC     C128579   4.807  13.407  18.102 -0.8451  0.6724 -0.2767
 2599UDC     C228580   4.938  13.361  18.169  0.2491  0.4799  0.5987
 2599UDC     C328581   4.902  13.246  18.267 -1.2691 -0.9006  0.2161
 2599UDC     C428582   4.863  13.119  18.176 -0.5596  1.2386  0.6529
 2599UDC     C528583   4.834  13.006  18.285  0.8478  0.7442  0.5336
 2599UDC     C628584   4.691  12.947  18.267  0.7965 -0.6358 -0.9270
 2599UDC     C728585   4.595  13.065  18.264 -0.1764  0.3257 -1.0776
 2599UDC     C828586   4.464  13.040  18.195  0.6039  0.2545  0.8402
 2599UDC     C928587   4.469  13.029  18.045 -0.5832  1.1485  0.5037
 2599UDC    C1028588   4.339  13.021  17.964 -0.7383 -0.8349  0.8043
 2599UDC    C1128589   4.247  13.150  18.003 -0.3732  0.7125 -0.0678
 2600UDC     C128590   1.620  13.116   3.094 -0.6221  0.6186 -0.8146
 2600UDC     C228591   1.572  13.085   2.952 -0.2379 -0.0093 -0.5705
 2600UDC     C328592   1.581  12.936   2.900  0.3236 -0.1716 -0.2051
 2600UDC     C428593   1.542  12.928   2.752 -0.5762 -0.1294 -0.3649
 2600UDC     C528594   1.554  12.783   2.698 -0.1080  0.4311 -0.4881
 2600UDC     C628595   1.520  12.759   2.552 -0.7798  0.5269  0.4215
 2600UDC     C728596   1.381  12.820   2.534 -0.9677  0.1392 -1.6292
 2600UDC     C828597   1.286  12.709   2.494  0.6455  0.7301 -0.2715
 2600UDC     C928598   1.158  12.754   2.415  0.5924  0.7202  0.3858
 2600UDC    C1028599   1.027  12.717   2.489  0.4223  0.0568 -0.3510
 2600UDC    C1128600   0.979  12.756   2.629 -0.6433 -0.8173  0.1702
 2601UDC     C128601  10.841  12.628   9.798 -1.4739  0.9087 -0.2937
 2601UDC     C228602  10.796  12.752   9.726  0.0955  0.3742  0.0271
 2601UDC     C328603  10.829  12.888   9.785 -0.2321  1.7555 -0.3443
 2601UDC     C428604  10.735  12.959   9.887  0.2715 -1.1662  0.5500
 2601UDC     C528605  10.803  13.067   9.978 -0.4609 -0.3661  0.4147
 2601UDC     C628606  10.713  13.126  10.086  0.9608  0.7488 -0.2342
 2601UDC     C728607  10.568  13.166  10.046  0.7790 -0.8402  0.1062
 2601UDC     C828608  10.566  13.277   9.949  0.3038 -0.0249  0.1952
 2601UDC     C928609  10.419  13.341   9.915  1.3281 -0.6382 -0.7015
 2601UDC    C1028610  10.369  13.430  10.033 -0.1782 -0.7136  0.8559
 2601UDC    C1128611  10.452  13.557  10.026 -0.2881  0.1364  0.6962
 2602UDC     C128612  13.109   1.661  19.237 -0.2454  0.7554 -0.3317
 2602UDC     C228613  13.014   1.658  19.365 -1.1237 -0.0308  0.3089
 2602UDC     C328614  13.024   1.784  19.463 -0.5913  0.7520  0.1379
 2602UDC     C428615  12.951   1.760  19.590  0.2137 -0.1783  0.2049
 2602UDC     C528616  13.020   1.648  19.663  0.5181  0.0513 -0.7529
 2602UDC     C628617  13.036   1.703  19.806 -0.3463 -0.8655  0.1926
 2602UDC     C728618  13.113   1.624  19.903 -0.1663 -0.2899 -0.0351
 2602UDC     C828619  13.164   1.699  20.029  0.2261 -0.2198  0.4169
 2602UDC     C928620  13.242   1.831  20.000 -0.0040  0.2170 -0.4104
 2602UDC    C1028621  13.299   1.894  20.127  0.1638  0.7657  0.0477
 2602UDC    C1128622  13.378   2.022  20.091 -1.1339 -0.1287  0.3268
 2603UDC     C128623   6.548  17.748   8.079  0.2538  0.6011 -0.3009
 2603UDC     C228624   6.668  17.845   8.091 -0.6724  1.1184 -0.7577
 2603UDC     C328625   6.778  17.808   7.997 -0.5908 -0.5034  0.7947
 2603UDC     C428626   6.878  17.925   7.971 -0.5796  0.6756  0.0005
 2603UDC     C528627   6.996  17.885   7.867  0.2753  0.7269  0.0983
 2603UDC     C628628   7.046  18.006   7.801 -0.4297  0.1600  0.2490
 2603UDC     C728629   7.158  17.996   7.693  0.5079  0.2200 -0.5982
 2603UDC     C828630   7.245  18.113   7.655 -0.3255  0.4833  0.8301
 2603UDC     C928631   7.174  18.242   7.619  0.1912  0.1919 -0.0172
 2603UDC    C1028632   7.108  18.248   7.482 -0.0449 -1.2325 -1.2110
 2603UDC    C1128633   7.201  18.185   7.378 -1.1572  0.8856 -0.0035
 2604UDC     C128634   6.891   4.458   8.072  0.1651 -0.2346  0.2676
 2604UDC     C228635   6.770   4.382   8.015 -0.1263  0.3309 -0.3281
 2604UDC     C328636   6.820   4.306   7.885  0.4272  0.8754  0.3428
 2604UDC     C428637   6.722   4.200   7.826 -0.1803 -0.8003 -0.6832
 2604UDC     C528638   6.777   4.146   7.695 -0.7001 -0.5680  0.1653
 2604UDC     C628639   6.904   4.065   7.723 -0.0012 -0.3356 -0.5838
 2604UDC     C728640   6.960   4.000   7.596 -1.1293 -0.1624  0.0400
 2604UDC     C828641   6.851   3.926   7.514  0.8059 -0.7533 -0.0121
 2604UDC     C928642   6.887   3.836   7.389 -0.0298 -0.5804 -0.3867
 2604UDC    C1028643   6.775   3.815   7.283  0.0632  0.1958  0.8259
 2604UDC    C1128644   6.866   3.792   7.152 -0.9009  0.0994 -0.0891
 2605UDC     C128645   5.361  10.109  11.330 -0.6482 -0.0055  0.4451
 2605UDC     C228646   5.273  10.236  11.311  0.9787  0.0523  0.5963
 2605UDC     C328647   5.211  10.250  11.172 -1.2801 -0.5138  0.7024
 2605UDC     C428648   5.107  10.362  11.139 -0.6386  0.6498 -0.0618
 2605UDC     C528649   4.967  10.310  11.125  0.6347 -0.2888  0.4550
 2605UDC     C628650   4.885  10.426  11.057  0.2227 -0.4483  0.2974
 2605UDC     C728651   4.821  10.538  11.140 -0.8333 -0.0098  0.0714
 2605UDC     C828652   4.783  10.669  11.073 -0.0296 -0.6254  0.0626
 2605UDC     C928653   4.910  10.741  11.027  0.4205 -0.6341  0.4114
 2605UDC    C1028654   4.892  10.896  11.019 -0.3693  0.4206 -0.3279
 2605UDC    C1128655   4.806  10.959  11.128 -0.4058 -0.2812 -0.6528
 2606UDC     C128656  18.173   6.049  17.870 -0.8723  0.9052 -0.3492
 2606UDC     C228657  18.085   6.009  17.993 -0.0091 -0.8859  0.2513
 2606UDC     C328658  17.972   5.912  17.949  0.6011  0.5538  0.1281
 2606UDC     C428659  17.993   5.758  17.912  0.5948 -0.5826  0.0042
 2606UDC     C528660  17.854   5.698  17.901 -0.2733 -0.6820 -0.0364
 2606UDC     C628661  17.770   5.694  18.034  0.6957 -0.5509  0.0786
 2606UDC     C728662  17.837   5.620  18.146 -0.2156 -0.2815  0.7700
 2606UDC     C828663  17.721   5.569  18.236 -0.6339  0.4947 -0.1353
 2606UDC     C928664  17.615   5.467  18.183  0.9902  0.2448 -0.5607
 2606UDC    C1028665  17.478   5.494  18.254  0.0058  0.5137  0.7646
 2606UDC    C1128666  17.485   5.427  18.394 -0.5972 -0.3025  0.1430
 2607UDC     C128667   0.204   5.986  18.205  0.2376 -0.5383 -0.0609
 2607UDC     C228668   0.239   6.036  18.060  0.2718  1.2518  0.0621
 2607UDC     C328669   0.120   5.987  17.973 -0.0733  0.9617  1.5850
 2607UDC     C428670   0.144   5.980  17.817  0.4755 -0.3051 -0.4144
 2607UDC     C528671   0.017   5.984  17.734  0.6368  0.8161  0.2347
 2607UDC     C628672   0.052   5.994  17.585  0.5202 -1.1062 -1.5379
 2607UDC     C728673  -0.049   6.079  17.502 -0.5378 -0.0006  0.1642
 2607UDC     C828674  -0.188   6.036  17.532  0.5775  0.0943 -0.1182
 2607UDC     C928675  -0.293   6.093  17.431  0.5546  0.1035 -0.7951
 2607UDC    C1028676  -0.329   6.225  17.476  0.0411 -0.9206  0.2530
 2607UDC    C1128677  -0.370   6.236  17.625  0.2572  0.4871  0.8180
 2608UDC     C128678   2.941  12.697   4.853  0.0518  0.0665  0.1362
 2608UDC     C228679   2.946  12.545   4.866 -0.7771 -0.1337  0.8810
 2608UDC     C328680   2.808  12.488   4.838 -0.3480 -0.4875 -0.6891
 2608UDC     C428681   2.819  12.346   4.894 -0.0664 -0.5281  0.0078
 2608UDC     C528682   2.876  12.255   4.787  0.2556 -0.6310 -0.3137
 2608UDC     C628683   2.983  12.158   4.843 -0.2195 -0.1315 -0.1863
 2608UDC     C728684   3.099  12.117   4.753  0.0914  0.4261 -0.3609
 2608UDC     C828685   3.093  11.969   4.761 -0.1817 -0.1362  0.4860
 2608UDC     C928686   2.975  11.905   4.694  0.5798  0.9214 -0.5667
 2608UDC    C1028687   2.982  11.900   4.538 -1.0426 -0.3827  0.2106
 2608UDC    C1128688   3.101  11.822   4.476 -0.2846  0.7948 -0.0421
 2609UDC     C128689  10.013  17.156   3.347 -0.1430 -0.2428  1.1493
 2609UDC     C228690   9.971  17.287   3.423  1.6553 -0.0519  0.7101
 2609UDC     C328691  10.089  17.389   3.439  0.2217  0.8490 -0.5344
 2609UDC     C428692  10.072  17.539   3.476  1.0660  0.9234  0.4069
 2609UDC     C528693  10.000  17.594   3.355 -0.9705  1.0022 -0.4370
 2609UDC     C628694  10.066  17.617   3.222 -0.0243 -0.9010 -0.3308
 2609UDC     C728695   9.989  17.721   3.141 -0.1799  0.1066  1.0173
 2609UDC     C828696   9.909  17.667   3.022  0.0716 -0.0444  0.5067
 2609UDC     C928697   9.981  17.552   2.942  0.8811 -0.1772 -0.1297
 2609UDC    C1028698   9.908  17.557   2.804 -0.7518  0.8537  0.4780
 2609UDC    C1128699   9.969  17.456   2.702 -0.5619  1.1475 -0.4067
 2610UDC     C128700   5.699  15.708   8.700 -0.2428  0.0016  0.4277
 2610UDC     C228701   5.693  15.833   8.775 -0.9642 -1.0286 -0.4120
 2610UDC     C328702   5.723  15.966   8.699 -0.6094  0.3197 -0.4248
 2610UDC     C428703   5.739  16.094   8.781 -0.1741  0.0961 -0.0237
 2610UDC     C528704   5.798  16.228   8.725 -0.4079  0.2774  1.3585
 2610UDC     C628705   5.948  16.214   8.702 -0.6562 -0.1524  0.5146
 2610UDC     C728706   6.037  16.327   8.634  0.2982  0.4934 -0.9403
 2610UDC     C828707   6.184  16.297   8.656 -0.6738  0.9390  0.0144
 2610UDC     C928708   6.216  16.143   8.687  0.1343 -0.9936  0.5945
 2610UDC    C1028709   6.359  16.113   8.730 -0.9310 -0.5814  1.1286
 2610UDC    C1128710   6.377  15.965   8.781  0.5003 -0.9358 -0.6652
 2611UDC     C128711   1.455   6.109  13.427  0.3155  0.1658  0.2057
 2611UDC     C228712   1.575   6.030  13.368  0.8580  0.2575  0.2989
 2611UDC     C328713   1.587   5.885  13.411 -1.9670 -0.0120  0.1488
 2611UDC     C428714   1.457   5.826  13.368  0.0012  0.8095 -0.3073
 2611UDC     C528715   1.443   5.769  13.221 -0.7576 -0.1224 -0.2880
 2611UDC     C628716   1.318   5.682  13.201 -0.2034  0.0746 -0.4887
 2611UDC     C728717   1.251   5.680  13.064  0.2206 -0.4296 -0.1384
 2611UDC     C828718   1.117   5.608  13.076  0.5042 -1.1482 -0.5461
 2611UDC     C928719   1.049   5.610  12.940 -0.3591  0.7659 -0.8090
 2611UDC    C1028720   1.105   5.493  12.857 -0.0728 -0.5616 -0.4158
 2611UDC    C1128721   1.068   5.492  12.708  0.4024  0.5323 -0.5512
 2612UDC     C128722   3.505  13.215  18.877  0.6983  0.1899  0.2995
 2612UDC     C228723   3.347  13.204  18.911 -0.4204  0.6153 -0.9647
 2612UDC     C328724   3.303  13.063  18.877  0.5937 -0.1784 -0.7229
 2612UDC     C428725   3.400  12.951  18.914 -0.2615  0.4924  0.7255
 2612UDC     C528726   3.353  12.837  18.830  0.0745  0.4484 -0.1497
 2612UDC     C628727   3.272  12.738  18.914 -0.1260  0.5867 -0.5860
 2612UDC     C728728   3.205  12.639  18.818 -1.1549 -0.0839 -0.1785
 2612UDC     C828729   3.072  12.693  18.770 -0.5628  0.4907  0.0639
 2612UDC     C928730   2.951  12.620  18.823  0.2539  0.5979  0.1567
 2612UDC    C1028731   2.801  12.644  18.780 -0.2176  0.7918  0.7462
 2612UDC    C1128732   2.767  12.791  18.815  0.4877 -0.1948 -0.6936
 2613UDC     C128733   2.205  11.283  19.792 -0.5341  0.4996 -0.1963
 2613UDC     C228734   2.344  11.264  19.859 -0.4125 -0.3604  0.9220
 2613UDC     C328735   2.436  11.384  19.830 -1.3412  0.0204  0.5393
 2613UDC     C428736   2.569  11.371  19.914  0.6349 -0.8987  0.8248
 2613UDC     C528737   2.661  11.491  19.884  0.3651 -1.5300  0.2122
 2613UDC     C628738   2.772  11.471  19.779  0.5392  0.2366 -0.2094
 2613UDC     C728739   2.909  11.527  19.829 -0.3204 -0.6740  0.3136
 2613UDC     C828740   3.043  11.546  19.753 -1.1033 -0.1446  1.1493
 2613UDC     C928741   3.146  11.546  19.873 -1.0321  0.7932  2.1425
 2613UDC    C1028742   3.132  11.661  19.972  0.1696 -0.6455 -0.0007
 2613UDC    C1128743   3.217  11.628  20.093  0.9180 -0.9213 -1.0024
 2614UDC     C128744   3.982   5.058  17.092  0.4020  0.3032  0.0114
 2614UDC     C228745   3.921   5.194  17.107 -0.1522  0.3601 -0.4609
 2614UDC     C328746   3.917   5.250  16.962  0.1173  0.4762 -0.0162
 2614UDC     C428747   3.845   5.382  16.932 -0.6997 -0.7019  0.9005
 2614UDC     C528748   3.889   5.503  17.015 -0.0982  0.1971  0.8178
 2614UDC     C628749   4.038   5.530  17.010  0.7716 -0.1139  0.7949
 2614UDC     C728750   4.085   5.673  17.054 -0.4251  0.5379  0.0628
 2614UDC     C828751   4.010   5.796  16.997 -0.7952  0.3884  0.4565
 2614UDC     C928752   4.081   5.929  17.007 -0.2461 -0.5891  0.3439
 2614UDC    C1028753   4.229   5.926  16.954  0.0859 -0.1998  0.4461
 2614UDC    C1128754   4.335   6.022  16.994 -0.0514  0.3491  0.6509
 2615UDC     C128755  14.422   5.219  12.995 -0.0535  0.2692 -0.3220
 2615UDC     C228756  14.565   5.168  12.956 -0.1842 -0.8534  0.1013
 2615UDC     C328757  14.629   5.076  13.062  0.2938  0.0136 -1.0234
 2615UDC     C428758  14.668   5.143  13.189  0.7464 -0.0552  0.1904
 2615UDC     C528759  14.723   5.060  13.304  0.3821 -0.3894 -0.8207
 2615UDC     C628760  14.776   5.165  13.410  0.6477 -0.0797  0.0126
 2615UDC     C728761  14.909   5.232  13.377 -0.1130 -0.2521  0.4282
 2615UDC     C828762  14.937   5.364  13.448  0.3099 -0.2713  0.9139
 2615UDC     C928763  15.016   5.347  13.581 -0.2593  0.6362 -0.1820
 2615UDC    C1028764  15.067   5.484  13.630 -0.0683  0.5714 -0.3993
 2615UDC    C1128765  15.109   5.489  13.775  0.2223  0.0493 -0.4259
 2616UDC     C128766   7.343   3.404   5.412 -0.3798  1.0656  0.3667
 2616UDC     C228767   7.313   3.292   5.515  0.7848 -0.4594 -0.3677
 2616UDC     C328768   7.426   3.239   5.592 -0.4551 -0.5321  0.1442
 2616UDC     C428769   7.441   3.271   5.745  1.2234  0.4725  0.0332
 2616UDC     C528770   7.482   3.413   5.775 -0.8512  0.3160 -0.1183
 2616UDC     C628771   7.633   3.439   5.739 -0.3132  0.3186 -0.4300
 2616UDC     C728772   7.740   3.420   5.844 -0.2117  0.4396  0.0395
 2616UDC     C828773   7.725   3.516   5.972 -0.3741  1.3678  0.0879
 2616UDC     C928774   7.621   3.509   6.089  0.6508 -0.6458 -0.2908
 2616UDC    C1028775   7.660   3.465   6.233  0.2029  0.1454  0.8937
 2616UDC    C1128776   7.556   3.469   6.348  0.6092  0.7430  0.0763
 2617UDC     C128777   7.985  15.441   9.230  1.0871  0.4948 -0.4399
 2617UDC     C228778   8.070  15.327   9.190  0.3394 -0.2208 -0.1391
 2617UDC     C328779   8.119  15.224   9.292  1.2776  0.9992  0.5532
 2617UDC     C428780   8.007  15.136   9.363  0.3992  1.1219 -0.0898
 2617UDC     C528781   8.022  15.102   9.512 -0.5848 -0.0863 -0.6051
 2617UDC     C628782   7.907  15.029   9.568 -0.1360 -0.2992  0.6396
 2617UDC     C728783   7.908  15.041   9.726  0.7295  0.8639 -0.1405
 2617UDC     C828784   7.794  14.955   9.788 -0.5021 -0.1211  0.1695
 2617UDC     C928785   7.775  14.978   9.933  0.5175  0.6789  0.1764
 2617UDC    C1028786   7.633  15.036   9.953  0.0757 -0.2043  0.6861
 2617UDC    C1128787   7.603  15.170   9.882 -0.7073 -0.0226 -0.8653
 2618UDC     C128788  14.899   3.873  17.641  0.2990 -0.3655  1.2420
 2618UDC     C228789  15.049   3.848  17.677 -0.5035 -0.2449 -0.4356
 2618UDC     C328790  15.094   3.949  17.788  0.4464 -0.4083  0.0992
 2618UDC     C428791  14.980   4.025  17.864 -0.7278  0.7114 -0.5203
 2618UDC     C528792  14.998   4.090  18.002 -0.2638  0.2002  0.4582
 2618UDC     C628793  15.011   3.988  18.123 -0.2215  1.4144 -0.3859
 2618UDC     C728794  15.047   4.067  18.254 -0.6350 -0.3214 -0.1782
 2618UDC     C828795  15.059   3.986  18.380 -0.4860 -0.2194 -0.5821
 2618UDC     C928796  15.076   4.079  18.507  0.1139  0.1486  0.0952
 2618UDC    C1028797  15.146   4.204  18.470  1.4123  0.1839  0.8498
 2618UDC    C1128798  15.178   4.310  18.574 -0.4391 -1.2399  0.2821
 2619UDC     C128799  17.180   7.525  14.101 -0.6884  0.7899  0.5213
 2619UDC     C228800  17.185   7.630  14.211  0.5257 -0.4173  1.1744
 2619UDC     C328801  17.151   7.577  14.347  0.4342  0.4014  0.8604
 2619UDC     C428802  17.195   7.664  14.471 -0.1004  0.9612  0.7472
 2619UDC     C528803  17.163   7.599  14.606 -0.4240 -0.2990 -0.9285
 2619UDC     C628804  17.271   7.642  14.705 -0.6207 -0.0195 -0.0440
 2619UDC     C728805  17.304   7.536  14.819 -0.0251  0.3660 -0.4875
 2619UDC     C828806  17.194   7.480  14.912 -0.0989 -0.3979 -0.0456
 2619UDC     C928807  17.245   7.362  14.990 -0.2373  0.6128  0.7622
 2619UDC    C1028808  17.179   7.335  15.122 -0.7215  0.2175  2.1000
 2619UDC    C1128809  17.173   7.187  15.162  0.3975 -0.1727  0.3500
 2620UDC     C128810   5.885  14.656   2.786  0.7540  0.0582  0.0033
 2620UDC     C228811   5.822  14.799   2.808 -0.7640 -0.1820  1.5507
 2620UDC     C328812   5.757  14.865   2.681  0.3017 -0.4485 -0.2097
 2620UDC     C428813   5.616  14.811   2.662  1.0275 -0.5507  0.7903
 2620UDC     C528814   5.516  14.932   2.643 -0.6487  1.0709  0.5477
 2620UDC     C628815   5.366  14.896   2.613  1.5319 -0.2461 -0.4029
 2620UDC     C728816   5.318  14.829   2.484 -0.4988  0.0304 -0.6342
 2620UDC     C828817   5.162  14.808   2.487 -1.1457 -0.8119 -1.2559
 2620UDC     C928818   5.111  14.901   2.380  0.7303 -0.4996 -0.0904
 2620UDC    C1028819   4.961  14.886   2.363  0.7827  1.3433  0.3523
 2620UDC    C1128820   4.904  15.007   2.296 -0.0542 -0.3620 -0.0354
 2621UDC     C128821   0.763   7.761   6.788 -1.0082 -0.8046 -0.3843
 2621UDC     C228822   0.800   7.798   6.639 -0.2820  0.5482 -0.8512
 2621UDC     C328823   0.745   7.938   6.611  0.3462  1.0461 -0.4759
 2621UDC     C428824   0.852   8.040   6.632 -0.4552  0.3781  0.2204
 2621UDC     C528825   0.809   8.186   6.599  0.7863  0.3439 -0.7732
 2621UDC     C628826   0.763   8.213   6.454  0.4864 -0.5440 -0.6748
 2621UDC     C728827   0.706   8.357   6.443  0.3753 -0.3515  0.3852
 2621UDC     C828828   0.587   8.360   6.532  0.6126  0.2436  0.1282
 2621UDC     C928829   0.553   8.512   6.550  0.6490  0.0155  0.7614
 2621UDC    C1028830   0.643   8.575   6.656 -1.0906  0.3291 -0.7887
 2621UDC    C1128831   0.602   8.718   6.697 -0.2914 -0.0909 -0.4651
 2622UDC     C128832   9.054  13.368  12.009  0.8318 -1.1349  0.8381
 2622UDC     C228833   9.071  13.409  11.861  0.9278 -0.0759 -0.7196
 2622UDC     C328834   9.058  13.291  11.766  0.0833 -0.2475  0.8339
 2622UDC     C428835   8.957  13.308  11.648 -0.6812  1.4850 -0.5320
 2622UDC     C528836   9.004  13.215  11.528 -0.3883 -0.7185 -0.3737
 2622UDC     C628837   8.939  13.221  11.389 -0.7371  0.8111 -0.2356
 2622UDC     C728838   8.941  13.085  11.321 -0.6991  0.0977  0.2879
 2622UDC     C828839   9.070  13.026  11.269 -0.8126 -0.7201 -1.0745
 2622UDC     C928840   9.066  12.888  11.198 -0.8573  0.3264 -0.4626
 2622UDC    C1028841   9.187  12.820  11.118  2.5210 -1.1443  0.3640
 2622UDC    C1128842   9.188  12.664  11.124 -0.0085  0.3215 -0.0249
 2623UDC     C128843   2.255  15.906   1.162 -0.5467 -0.5955 -0.2733
 2623UDC     C228844   2.262  15.792   1.264  1.6622  0.2996 -0.0224
 2623UDC     C328845   2.403  15.730   1.257  0.5985  0.9005  0.1390
 2623UDC     C428846   2.406  15.639   1.378 -1.0064  0.4008 -0.2526
 2623UDC     C528847   2.527  15.675   1.470  0.1887 -0.6141  1.0385
 2623UDC     C628848   2.509  15.783   1.586 -0.5706 -0.1685  1.0529
 2623UDC     C728849   2.617  15.889   1.615 -0.1751  0.4982  0.9964
 2623UDC     C828850   2.600  16.013   1.531 -0.9960  0.5841  1.2733
 2623UDC     C928851   2.726  16.107   1.530 -0.0548 -0.1342  0.5669
 2623UDC    C1028852   2.748  16.164   1.674  0.2969  0.7041 -0.3807
 2623UDC    C1128853   2.881  16.236   1.702  0.0528  0.0372  1.0384
 2624UDC     C128854   5.956  13.715  18.571 -0.0934 -0.2765 -0.5479
 2624UDC     C228855   5.877  13.679  18.445 -1.0373  0.1577 -0.1797
 2624UDC     C328856   5.737  13.639  18.484  0.5653  1.0070 -0.8663
 2624UDC     C428857   5.742  13.512  18.574 -0.3491 -0.3292  0.6019
 2624UDC     C528858   5.623  13.478  18.674 -0.1835 -0.5319 -0.8043
 2624UDC     C628859   5.570  13.597  18.762  0.6131  1.3513  0.1188
 2624UDC     C728860   5.434  13.653  18.731 -1.0514  0.2597 -0.0960
 2624UDC     C828861   5.407  13.777  18.815 -0.0587 -0.4106 -0.1382
 2624UDC     C928862   5.323  13.884  18.744 -0.2197  0.6507  0.6996
 2624UDC    C1028863   5.215  13.965  18.820  0.2870 -0.6051  0.3725
 2624UDC    C1128864   5.260  14.024  18.955 -0.8243 -0.9943  0.3536
 2625UDC     C128865  16.556   3.051   7.732  0.4315  0.2499 -0.0108
 2625UDC     C228866  16.554   3.199   7.762 -0.1379  0.2133 -0.2173
 2625UDC     C328867  16.682   3.286   7.732 -0.0363  0.1878 -0.1728
 2625UDC     C428868  16.698   3.410   7.815 -0.5158  0.3747 -0.0621
 2625UDC     C528869  16.784   3.511   7.737 -0.2093 -1.0624 -0.1134
 2625UDC     C628870  16.747   3.655   7.789 -0.5129  0.0846  0.0121
 2625UDC     C728871  16.778   3.777   7.689 -0.2808  0.2456 -1.0846
 2625UDC     C828872  16.691   3.891   7.750 -0.3464 -0.3370 -0.9483
 2625UDC     C928873  16.712   4.012   7.655  0.3652  0.7523 -0.2432
 2625UDC    C1028874  16.624   4.134   7.669 -0.2972 -0.5582  0.7519
 2625UDC    C1128875  16.688   4.267   7.618  0.6220  0.0488  0.5127
 2626UDC     C128876  19.098  13.572   6.744 -0.9591  0.7011  0.5579
 2626UDC     C228877  19.108  13.441   6.659  0.5651  0.5906 -0.3010
 2626UDC     C328878  19.080  13.450   6.507  0.5946 -0.4196 -0.4878
 2626UDC     C428879  18.936  13.460   6.456  0.2033  0.4117 -0.0199
 2626UDC     C528880  18.856  13.327   6.435 -0.3436 -0.3128 -0.6691
 2626UDC     C628881  18.703  13.335   6.411  0.3188 -0.4227 -0.3901
 2626UDC     C728882  18.640  13.206   6.350 -0.3523 -0.2824 -0.7142
 2626UDC     C828883  18.688  13.166   6.206 -0.0477 -0.3613  0.5948
 2626UDC     C928884  18.601  13.059   6.145  0.5348  0.4890 -0.2393
 2626UDC    C1028885  18.612  12.916   6.198  0.2843  0.1395  1.0148
 2626UDC    C1128886  18.542  12.818   6.112 -0.0665 -0.0482 -0.6480
 2627UDC     C128887   5.718  11.338  18.380 -0.0705  0.5519 -0.0690
 2627UDC     C228888   5.595  11.423  18.378 -0.0218  0.5362 -0.1747
 2627UDC     C328889   5.486  11.416  18.269 -0.1457  0.3115  0.0257
 2627UDC     C428890   5.358  11.504  18.265 -0.1250 -0.1825 -0.7678
 2627UDC     C528891   5.396  11.650  18.228 -0.7959 -0.4818  0.2480
 2627UDC     C628892   5.303  11.773  18.254 -0.7543 -0.6002 -0.6926
 2627UDC     C728893   5.166  11.742  18.186 -0.2672  0.4663  0.4466
 2627UDC     C828894   5.068  11.861  18.202  0.4398  0.3117 -0.3360
 2627UDC     C928895   4.919  11.838  18.156  0.5195  0.2402  0.1085
 2627UDC    C1028896   4.889  11.822  17.998  0.5849 -0.4862 -1.0188
 2627UDC    C1128897   4.739  11.784  17.984 -0.2421 -0.0740  1.0540
 2628UDC     C128898   3.996   4.979  18.884  0.2200 -1.8027  0.4019
 2628UDC     C228899   4.120   4.891  18.922  0.5259  0.2777  0.2592
 2628UDC     C328900   4.118   4.842  19.072 -0.2114 -0.0601  0.5310
 2628UDC     C428901   4.171   4.700  19.101 -0.0505  0.0195  0.1754
 2628UDC     C528902   4.130   4.567  19.032  0.3698 -1.2329  0.4652
 2628UDC     C628903   4.235   4.542  18.920  0.2195 -0.1464 -0.2728
 2628UDC     C728904   4.202   4.596  18.774 -0.6634  0.7596 -1.5002
 2628UDC     C828905   4.314   4.563  18.672  0.4892 -0.1603 -0.8719
 2628UDC     C928906   4.273   4.629  18.541 -0.5125 -0.7809  0.9131
 2628UDC    C1028907   4.369   4.581  18.429 -0.1218  0.5861  0.5378
 2628UDC    C1128908   4.326   4.603  18.278 -0.5161  0.8597 -0.2912
 2629UDC     C128909  10.532   9.905   7.439 -0.5180  0.2135  0.6055
 2629UDC     C228910  10.508   9.974   7.576  0.8014 -0.0297  0.2311
 2629UDC     C328911  10.472  10.118   7.567  0.2296 -0.2020  0.4508
 2629UDC     C428912  10.406  10.180   7.701 -1.1238  0.3556  0.3513
 2629UDC     C528913  10.508  10.237   7.810 -0.5940  0.3339  1.3807
 2629UDC     C628914  10.448  10.202   7.945 -1.0951 -1.0433  1.0820
 2629UDC     C728915  10.464  10.051   7.965 -0.0502  0.1465  1.3367
 2629UDC     C828916  10.415   9.982   8.096  0.4370 -1.4243 -0.2179
 2629UDC     C928917  10.530   9.951   8.188 -1.0296  0.4875 -0.6833
 2629UDC    C1028918  10.472   9.894   8.314  0.6092  0.5892 -0.0276
 2629UDC    C1128919  10.581   9.799   8.362 -0.5569 -0.1418 -0.9493
 2630UDC     C128920  15.235   3.374  18.111 -0.1464  0.2361  0.0107
 2630UDC     C228921  15.290   3.493  18.193 -0.0071  0.7209 -0.2435
 2630UDC     C328922  15.437   3.525  18.229  0.7592  0.5522  0.6024
 2630UDC     C428923  15.483   3.440  18.350 -0.7766 -0.1556 -0.0198
 2630UDC     C528924  15.374   3.427  18.459 -0.0921 -0.1667 -0.0971
 2630UDC     C628925  15.401   3.373  18.601 -0.3280  0.4555 -1.0063
 2630UDC     C728926  15.522   3.444  18.654 -0.4558 -0.2442 -0.3266
 2630UDC     C828927  15.583   3.415  18.796  0.3626  0.1812 -0.2412
 2630UDC     C928928  15.603   3.269  18.833 -0.6596 -0.4551 -0.2689
 2630UDC    C1028929  15.675   3.294  18.962 -0.7862  0.4593  0.0326
 2630UDC    C1128930  15.702   3.173  19.053 -0.6022 -0.7110 -0.7391
 2631UDC     C128931   1.620   7.936   1.552  0.9366 -1.4384 -0.0955
 2631UDC     C228932   1.544   7.864   1.671 -0.3535 -1.0235 -0.2683
 2631UDC     C328933   1.396   7.861   1.665 -0.3541  0.3190  0.4585
 2631UDC     C428934   1.320   7.770   1.764 -0.6037  0.2637 -0.1410
 2631UDC     C528935   1.373   7.627   1.792 -0.1440  0.5066  0.3507
 2631UDC     C628936   1.339   7.588   1.933  0.3283 -0.2950 -0.4032
 2631UDC     C728937   1.401   7.653   2.052  0.6407 -0.3303  0.7946
 2631UDC     C828938   1.346   7.621   2.193 -0.0952 -0.1488  0.5879
 2631UDC     C928939   1.328   7.477   2.209  0.4318  0.8845 -0.5265
 2631UDC    C1028940   1.235   7.435   2.328  0.2662 -0.3843  0.6693
 2631UDC    C1128941   1.240   7.283   2.351  0.0640 -0.4694 -0.1892
 2632UDC     C128942  10.076  18.798  11.076 -0.3315 -0.8663  0.3189
 2632UDC     C228943  10.198  18.768  10.987 -0.2277 -0.1267  0.5035
 2632UDC     C328944  10.313  18.690  11.054 -0.0846 -1.0347  0.2877
 2632UDC     C428945  10.435  18.669  10.969 -0.5209  0.2899 -0.5596
 2632UDC     C528946  10.495  18.775  10.871 -0.3327  1.0677 -1.1162
 2632UDC     C628947  10.618  18.849  10.938 -0.0602 -0.1387  0.1442
 2632UDC     C728948  10.679  18.972  10.861 -0.9569 -0.4154  0.5568
 2632UDC     C828949  10.822  19.019  10.908  1.1041 -0.5229  0.2184
 2632UDC     C928950  10.838  19.159  10.849  0.0506  0.1951 -0.0346
 2632UDC    C1028951  10.973  19.222  10.871  0.3991  0.3937  0.4888
 2632UDC    C1128952  10.965  19.363  10.809  0.1033  0.6277  1.0173
 2633UDC     C128953   0.969  10.863  15.743 -0.5377 -0.2165  0.5717
 2633UDC     C228954   0.825  10.841  15.778  0.5736 -0.0648  0.0785
 2633UDC     C328955   0.765  10.709  15.725 -0.8229 -0.2144  0.3871
 2633UDC     C428956   0.736  10.707  15.581 -0.2368 -0.3109  1.3073
 2633UDC     C528957   0.705  10.563  15.541  0.5060  0.3404 -0.2484
 2633UDC     C628958   0.590  10.582  15.442  0.1701  0.2398  0.9735
 2633UDC     C728959   0.622  10.706  15.355  0.5494 -1.1349 -0.6155
 2633UDC     C828960   0.530  10.737  15.243  1.3530 -0.4172  0.2789
 2633UDC     C928961   0.404  10.813  15.269  0.6748 -0.8874  0.7525
 2633UDC    C1028962   0.432  10.940  15.351  0.6494 -0.7309 -0.4857
 2633UDC    C1128963   0.307  11.011  15.400 -0.2113 -0.8131 -0.1855
 2634UDC     C128964  16.215  12.241   1.047  0.1423  0.0290  1.7027
 2634UDC     C228965  16.137  12.375   1.049  1.0397  0.5603 -0.7083
 2634UDC     C328966  16.011  12.379   0.964 -0.8320 -0.1480  0.3496
 2634UDC     C428967  15.881  12.335   1.020 -0.1780  0.7178 -0.7534
 2634UDC     C528968  15.772  12.326   0.915  0.3143 -0.8356 -0.9601
 2634UDC     C628969  15.759  12.187   0.847  0.2110 -0.2729 -0.3167
 2634UDC     C728970  15.765  12.063   0.934 -0.1147  0.3929  0.1107
 2634UDC     C828971  15.757  11.915   0.881 -1.0915 -0.3182  0.1162
 2634UDC     C928972  15.867  11.869   0.781  0.2271 -0.3001  0.2147
 2634UDC    C1028973  15.848  11.727   0.739 -0.0912  1.3948 -0.5912
 2634UDC    C1128974  15.716  11.676   0.668 -0.4125  0.2221 -0.3115
 2635UDC     C128975   8.679   9.099   7.662 -0.0750 -0.2428 -0.1449
 2635UDC     C228976   8.565   9.083   7.763  0.0272 -0.0564 -0.6174
 2635UDC     C328977   8.427   9.137   7.732 -0.1671 -0.5009  0.6721
 2635UDC     C428978   8.333   9.141   7.854  0.5378  0.0326  0.9657
 2635UDC     C528979   8.184   9.169   7.816 -0.7426  0.0636  1.0231
 2635UDC     C628980   8.112   9.062   7.730  0.4475 -0.0301 -0.5356
 2635UDC     C728981   8.131   8.914   7.786 -0.5318 -0.9011 -0.5145
 2635UDC     C828982   8.114   8.789   7.704 -0.1622  1.3099 -0.3066
 2635UDC     C928983   8.062   8.832   7.567  0.1126  0.7177 -0.5615
 2635UDC    C1028984   7.989   8.723   7.484  0.0898 -0.3362 -0.2936
 2635UDC    C1128985   7.979   8.768   7.341 -0.1667  0.6921 -0.3170
 2636UDC     C128986   4.239   7.372   9.953  0.3119 -0.4700  0.2823
 2636UDC     C228987   4.106   7.313  10.002  0.9949 -0.5203  0.4259
 2636UDC     C328988   4.085   7.193  10.100  0.4306  0.3375  0.7096
 2636UDC     C428989   3.950   7.171  10.161  0.1110 -0.0003 -0.6024
 2636UDC     C528990   3.924   7.041  10.241 -1.0646  0.6619  0.0428
 2636UDC     C628991   3.945   6.904  10.180  0.9806 -0.9226  0.6884
 2636UDC     C728992   3.970   6.789  10.279  0.4414 -0.2328  0.0466
 2636UDC     C828993   3.870   6.669  10.310 -0.0857 -0.4439 -0.0863
 2636UDC     C928994   3.759   6.711  10.401 -0.3241  0.8073 -0.3269
 2636UDC    C1028995   3.630   6.784  10.335  0.4686 -0.7841 -0.0656
 2636UDC    C1128996   3.529   6.817  10.445 -0.4158 -1.1365  0.3065
 2637UDC     C128997   3.145  17.506  15.941  0.0070  0.9797  0.1100
 2637UDC     C228998   3.273  17.580  15.994 -1.0922  0.3596 -0.5776
 2637UDC     C328999   3.242  17.730  16.009 -1.0680 -0.3071 -0.0498
 2637UDC     C429000   3.195  17.804  15.880  0.8734 -0.0119  0.7828
 2637UDC     C529001   3.307  17.850  15.789  0.0692  1.1264  0.1338
 2637UDC     C629002   3.238  17.931  15.672 -0.4029 -0.5488 -0.0039
 2637UDC     C729003   3.322  17.985  15.554 -0.4958  0.2786  0.3934
 2637UDC     C829004   3.458  18.060  15.578 -0.4405  0.6874  0.7999
 2637UDC     C929005   3.499  18.170  15.473  1.0239 -0.0499  0.7825
 2637UDC    C1029006   3.581  18.117  15.357  0.0765 -0.0576 -0.7540
 2637UDC    C1129007   3.690  18.036  15.437 -0.4530 -0.5196  0.0426
 2638UDC     C129008  10.645  10.131   0.189  0.5078  0.0246  0.6227
 2638UDC     C229009  10.789  10.178   0.237  0.2551  0.4090  0.0345
 2638UDC     C329010  10.865  10.245   0.124  0.3825 -0.3312 -0.7012
 2638UDC     C429011  10.790  10.364   0.070 -0.1382 -0.2759  0.0768
 2638UDC     C529012  10.830  10.388  -0.080 -0.0625  0.1945 -0.0375
 2638UDC     C629013  10.753  10.285  -0.166 -0.9878 -0.1154 -0.0177
 2638UDC     C729014  10.600  10.325  -0.174  0.2478 -0.4466  0.8930
 2638UDC     C829015  10.540  10.255  -0.298 -0.0251  0.3337 -0.2919
 2638UDC     C929016  10.396  10.292  -0.313  0.0744 -1.3186 -0.4942
 2638UDC    C1029017  10.379  10.440  -0.371 -0.4508  0.0240  0.0298
 2638UDC    C1129018  10.236  10.473  -0.375 -0.0951 -0.1892 -1.0252
 2639UDC     C129019  15.704   2.348  18.558 -0.0011  0.2986  0.2593
 2639UDC     C229020  15.621   2.230  18.515 -0.9686 -0.1150  0.2642
 2639UDC     C329021  15.553   2.253  18.371  0.2608 -0.2727  0.2668
 2639UDC     C429022  15.633   2.273  18.240  0.0641 -0.1734 -0.2168
 2639UDC     C529023  15.553   2.295  18.111 -0.8718  0.5968  1.6993
 2639UDC     C629024  15.457   2.417  18.104 -0.5540  0.1184  1.0033
 2639UDC     C729025  15.475   2.529  17.998 -0.3537 -0.1224  0.3263
 2639UDC     C829026  15.609   2.603  17.978 -0.3494  0.6971 -0.2299
 2639UDC     C929027  15.600   2.684  17.842 -1.2093  0.9518 -0.5345
 2639UDC    C1029028  15.735   2.748  17.800 -0.3258 -0.1726  0.1435
 2639UDC    C1129029  15.850   2.655  17.753  0.1012  0.7877  0.0285
 2640UDC     C129030   3.469   8.280   2.396  0.3699  0.4796 -0.4330
 2640UDC     C229031   3.348   8.325   2.475 -0.8629  0.2634 -0.1450
 2640UDC     C329032   3.342   8.480   2.467  0.1948 -0.5166 -0.1571
 2640UDC     C429033   3.432   8.569   2.556  0.5202  0.1745 -0.2469
 2640UDC     C529034   3.338   8.679   2.607 -0.7572 -0.3461  0.1920
 2640UDC     C629035   3.233   8.738   2.510  0.5800  0.9794  0.2504
 2640UDC     C729036   3.161   8.865   2.554  0.2809  0.0445 -1.7004
 2640UDC     C829037   3.011   8.831   2.595  0.4542  0.3266 -0.2601
 2640UDC     C929038   2.922   8.959   2.625  0.2859 -0.3824  0.3500
 2640UDC    C1029039   2.881   9.055   2.506  0.4381  0.5515  0.3747
 2640UDC    C1129040   2.746   9.121   2.551 -0.8416  1.4662  0.9238
 2641UDC     C129041   0.724   7.017   6.765  0.3298  0.6061  0.3202
 2641UDC     C229042   0.697   7.131   6.870 -0.5171  0.0773  0.8371
 2641UDC     C329043   0.802   7.126   6.988 -0.1528  0.2238 -0.2674
 2641UDC     C429044   0.797   7.242   7.096  0.0582  0.6029  0.0411
 2641UDC     C529045   0.912   7.336   7.103  0.2519 -0.4241  0.3558
 2641UDC     C629046   0.879   7.467   7.179  0.0748 -0.2735  0.1992
 2641UDC     C729047   0.793   7.574   7.112  0.9402  0.9575 -0.1860
 2641UDC     C829048   0.738   7.666   7.218 -0.1434 -0.1635 -0.3358
 2641UDC     C929049   0.596   7.739   7.189 -0.3580  0.0660  0.1474
 2641UDC    C1029050   0.469   7.663   7.222  0.4328 -0.9766 -0.3294
 2641UDC    C1129051   0.430   7.636   7.369 -0.8743 -0.4225 -0.5749
 2642UDC     C129052  10.661   9.421  19.978 -0.0207  0.4061  0.4849
 2642UDC     C229053  10.591   9.352  19.858  0.0454 -0.4482 -0.9194
 2642UDC     C329054  10.552   9.208  19.887  0.0637 -0.6615 -0.4752
 2642UDC     C429055  10.500   9.119  19.766 -0.5420 -0.0959 -0.3227
 2642UDC     C529056  10.615   9.061  19.668 -1.0365  0.1025  0.5330
 2642UDC     C629057  10.568   8.974  19.550  0.0002 -0.8666 -0.6143
 2642UDC     C729058  10.503   9.045  19.427  0.1805 -0.0679  0.0464
 2642UDC     C829059  10.602   9.125  19.335 -0.9703  0.3159 -0.3877
 2642UDC     C929060  10.714   9.060  19.255  0.6265  0.0107 -0.2242
 2642UDC    C1029061  10.843   9.140  19.208 -0.3846 -0.0462 -0.2876
 2642UDC    C1129062  10.936   9.085  19.097  0.4386 -0.4326  1.3217
 2643UDC     C129063   5.976  17.696   4.920 -0.2867 -0.3707  0.1367
 2643UDC     C229064   5.873  17.803   4.876  0.6889 -0.6809  0.5181
 2643UDC     C329065   5.838  17.787   4.727  0.3363 -0.5071  0.3299
 2643UDC     C429066   5.751  17.904   4.678  0.6560  0.1565 -0.0454
 2643UDC     C529067   5.819  17.980   4.564 -0.1067 -0.1110 -0.0711
 2643UDC     C629068   5.746  18.116   4.546 -0.0445 -1.1289 -0.4469
 2643UDC     C729069   5.791  18.208   4.433 -0.5024 -0.3810 -0.6342
 2643UDC     C829070   5.738  18.360   4.446 -0.8834 -0.2738 -0.6590
 2643UDC     C929071   5.596  18.372   4.491  0.4350 -0.2196  0.6292
 2643UDC    C1029072   5.488  18.305   4.404  0.6939 -0.4698 -0.4752
 2643UDC    C1129073   5.342  18.328   4.450  0.0025  0.7725 -0.8146
 2644UDC     C129074   5.431   9.822   7.388 -0.5378  0.1675  0.1460
 2644UDC     C229075   5.533   9.764   7.294 -0.3279 -0.0054  0.0996
 2644UDC     C329076   5.499   9.622   7.263 -0.1089  0.5677  0.6132
 2644UDC     C429077   5.421   9.556   7.378  0.2759  0.5178 -0.5186
 2644UDC     C529078   5.368   9.408   7.368  0.2641  0.6226  0.4200
 2644UDC     C629079   5.465   9.304   7.295 -0.2324 -0.4324  0.2499
 2644UDC     C729080   5.400   9.168   7.280 -0.3014  0.6996 -1.5319
 2644UDC     C829081   5.380   9.113   7.422  0.9661  0.1173 -0.3036
 2644UDC     C929082   5.289   8.986   7.423  0.7580 -0.0624  0.3056
 2644UDC    C1029083   5.383   8.879   7.375 -0.4338  1.1223  0.6677
 2644UDC    C1129084   5.349   8.726   7.401  0.3767 -0.9644 -0.5598
 2645UDC     C129085  12.650   2.293  10.660  0.5806 -0.0717  0.5430
 2645UDC     C229086  12.598   2.193  10.761 -0.8544  0.1257 -0.1287
 2645UDC     C329087  12.665   2.213  10.905 -0.7836  0.2776 -0.4193
 2645UDC     C429088  12.591   2.093  10.977 -0.0411  0.5507  1.3859
 2645UDC     C529089  12.628   2.071  11.120 -1.3514 -0.0441  0.6442
 2645UDC     C629090  12.506   2.079  11.208  0.0395  0.2627 -0.0546
 2645UDC     C729091  12.532   2.083  11.358 -0.6412  0.8868  1.1599
 2645UDC     C829092  12.415   2.119  11.452  0.5903  0.3147 -0.6084
 2645UDC     C929093  12.291   2.019  11.438  0.9583 -1.1481 -0.1991
 2645UDC    C1029094  12.171   2.076  11.517  0.3522  0.0806  1.1798
 2645UDC    C1129095  12.108   2.216  11.473  0.6801 -1.1711 -0.7636
 2646UDC     C129096   1.627  14.321   0.349 -1.1023  0.2999 -0.2179
 2646UDC     C229097   1.566  14.378   0.476 -1.0315  0.9128 -0.5087
 2646UDC     C329098   1.623  14.324   0.608  0.3706  0.0991 -0.3998
 2646UDC     C429099   1.554  14.378   0.730  0.2875 -0.4086  0.0445
 2646UDC     C529100   1.538  14.279   0.852  0.7248  1.0104 -0.2276
 2646UDC     C629101   1.454  14.319   0.973  0.3415 -0.7620  0.0600
 2646UDC     C729102   1.328  14.386   0.925 -0.0214  0.1247 -0.3095
 2646UDC     C829103   1.255  14.487   1.014  0.1954  0.0054 -0.1633
 2646UDC     C929104   1.328  14.622   1.021  0.1716  0.0934  0.4570
 2646UDC    C1029105   1.299  14.724   0.912 -0.3138 -0.7820  0.7990
 2646UDC    C1129106   1.169  14.768   0.870  0.1101  0.4250  0.4836
 2647UDC     C129107   1.296   8.216  12.211 -0.2049  0.5317  0.1140
 2647UDC     C229108   1.245   8.298  12.331 -1.2127 -0.0692 -0.0593
 2647UDC     C329109   1.355   8.286  12.433 -0.6763  0.2543  1.5194
 2647UDC     C429110   1.327   8.393  12.535  0.7707  0.5408 -0.1008
 2647UDC     C529111   1.455   8.438  12.601  0.2487  0.1197 -0.3391
 2647UDC     C629112   1.587   8.361  12.580 -0.5721  1.1597 -1.3428
 2647UDC     C729113   1.679   8.429  12.683  0.1741 -0.0315  0.4947
 2647UDC     C829114   1.605   8.410  12.819  0.3996  0.0336  0.4265
 2647UDC     C929115   1.648   8.506  12.923  1.1119  1.5232 -0.7282
 2647UDC    C1029116   1.651   8.648  12.857 -0.2481 -0.0708 -1.1137
 2647UDC    C1129117   1.564   8.741  12.954  0.0739  0.5118 -0.1053
 2648UDC     C129118   6.706   3.857  16.177  0.2525 -0.2442 -0.5396
 2648UDC     C229119   6.796   3.779  16.086  0.5073 -0.2150 -1.0143
 2648UDC     C329120   6.947   3.812  16.116 -0.4470  0.3746  0.1737
 2648UDC     C429121   7.045   3.710  16.054 -0.2845  0.6498  1.1396
 2648UDC     C529122   7.186   3.772  16.011  1.2167  0.3457  0.1514
 2648UDC     C629123   7.205   3.864  15.892  0.6767 -0.8513 -0.6251
 2648UDC     C729124   7.335   3.943  15.850  0.5870  1.1259  0.0284
 2648UDC     C829125   7.316   4.072  15.770 -0.9505 -0.0794  0.2321
 2648UDC     C929126   7.342   4.043  15.623 -0.2581 -0.0174 -0.6521
 2648UDC    C1029127   7.213   4.016  15.553  0.1824  0.0284  1.3575
 2648UDC    C1129128   7.221   4.024  15.396  0.3403 -0.4020 -0.3640
 2649UDC     C129129  13.978  15.755   1.801 -0.6754 -1.0213 -0.9426
 2649UDC     C229130  14.080  15.764   1.911 -0.6000 -0.5959 -0.5321
 2649UDC     C329131  14.194  15.658   1.896 -0.1101 -0.1937 -0.7928
 2649UDC     C429132  14.303  15.642   2.008 -0.1811 -0.3017 -0.1883
 2649UDC     C529133  14.245  15.575   2.137  0.0609 -0.2640  0.6818
 2649UDC     C629134  14.282  15.628   2.275  0.8192 -0.7621 -0.4332
 2649UDC     C729135  14.187  15.729   2.341 -0.1153 -1.0883 -0.7579
 2649UDC     C829136  14.126  15.681   2.481 -0.1013  0.1490  1.2456
 2649UDC     C929137  14.229  15.720   2.584 -1.1695 -0.0972  1.1208
 2649UDC    C1029138  14.171  15.843   2.663 -0.4881  0.5235 -0.7643
 2649UDC    C1129139  14.257  15.912   2.770 -0.4002  0.4027 -0.3913
 2650UDC     C129140   4.773  12.011  17.294 -1.1152  0.4162 -0.6734
 2650UDC     C229141   4.732  11.927  17.170 -0.1168 -0.0194  0.1205
 2650UDC     C329142   4.717  12.042  17.071 -0.6967  0.4114 -0.5227
 2650UDC     C429143   4.581  12.108  17.091  0.1745 -0.2741 -0.2420
 2650UDC     C529144   4.538  12.166  16.954 -0.6694  1.0486 -0.9406
 2650UDC     C629145   4.445  12.282  16.945  0.2058 -0.0874  0.1667
 2650UDC     C729146   4.439  12.323  16.798 -0.7259  0.1898 -0.6549
 2650UDC     C829147   4.381  12.460  16.756  0.7205  0.5116  0.1955
 2650UDC     C929148   4.367  12.473  16.598 -0.2777  0.4441 -0.3741
 2650UDC    C1029149   4.247  12.408  16.525  0.6771  0.7390  1.0142
 2650UDC    C1129150   4.252  12.438  16.373  0.0621  0.0283 -0.2366
 2651UDC     C129151  19.485   3.713  11.640  0.0661 -0.3878  0.5441
 2651UDC     C229152  19.600   3.778  11.557 -0.0487  0.7031  1.4970
 2651UDC     C329153  19.727   3.810  11.647  0.5424  0.3476  0.9233
 2651UDC     C429154  19.799   3.682  11.703  0.5748 -0.3847  0.4309
 2651UDC     C529155  19.890   3.616  11.586  0.4238  0.2197 -1.1303
 2651UDC     C629156  19.985   3.708  11.506 -0.2076  0.1294  0.1478
 2651UDC     C729157  20.095   3.653  11.405 -0.2595  0.3094 -0.5707
 2651UDC     C829158  20.115   3.756  11.288  1.1053 -0.2605 -0.4125
 2651UDC     C929159  20.226   3.725  11.195 -1.0039  0.3964 -1.5770
 2651UDC    C1029160  20.178   3.629  11.092  1.6095  0.5897  0.3787
 2651UDC    C1129161  20.115   3.692  10.966  0.6063 -0.6026  1.0324
 2652UDC     C129162   2.997   8.460  16.394 -0.8973  0.6008 -0.2196
 2652UDC     C229163   2.998   8.492  16.544  0.4450 -0.6734  0.4527
 2652UDC     C329164   3.031   8.637  16.575 -0.3038  0.0159 -0.5173
 2652UDC     C429165   3.172   8.676  16.527 -0.1547 -0.5362  0.0210
 2652UDC     C529166   3.197   8.792  16.622  0.3362  0.1735  0.5574
 2652UDC     C629167   3.310   8.878  16.569 -0.3399 -1.4719 -0.0431
 2652UDC     C729168   3.434   8.802  16.535 -0.6613 -1.6851 -0.1846
 2652UDC     C829169   3.570   8.841  16.596 -0.3451  1.8362  0.2922
 2652UDC     C929170   3.688   8.764  16.529  0.0999 -0.6706 -0.5302
 2652UDC    C1029171   3.807   8.825  16.456 -0.2525  0.8564  0.1575
 2652UDC    C1129172   3.783   8.903  16.333  0.1067 -0.0535  0.3306
 2653UDC     C129173   2.541  14.008  10.089  0.1630  0.1911  0.0084
 2653UDC     C229174   2.462  13.952   9.970  0.3491 -0.5037 -0.4522
 2653UDC     C329175   2.351  14.050   9.925 -0.5137  0.7514  0.4678
 2653UDC     C429176   2.273  14.113  10.037  0.9509 -0.1639  0.4966
 2653UDC     C529177   2.134  14.044  10.045 -0.4878 -0.0320  0.7313
 2653UDC     C629178   2.040  14.029   9.926 -1.1111 -0.9309 -0.4561
 2653UDC     C729179   1.921  13.952   9.975  1.1207 -0.6969 -0.2275
 2653UDC     C829180   1.963  13.805  10.005 -0.0888 -0.1585 -0.5455
 2653UDC     C929181   1.882  13.679   9.995  0.4569 -0.1018 -1.0917
 2653UDC    C1029182   1.966  13.562  10.058 -0.7683  0.2948 -0.6328
 2653UDC    C1129183   2.091  13.524   9.966  0.8562  1.0842 -1.0682
 2654UDC     C129184   7.319   2.844   3.686  0.0227 -1.4435  0.7781
 2654UDC     C229185   7.212   2.907   3.592  0.5558 -0.1015 -0.4930
 2654UDC     C329186   7.101   2.812   3.543 -0.3703  0.9665  0.9932
 2654UDC     C429187   7.022   2.763   3.664 -0.6308 -0.7681 -0.5284
 2654UDC     C529188   6.871   2.732   3.649 -1.0085  0.4222  0.2540
 2654UDC     C629189   6.794   2.846   3.582 -0.6889 -1.5376  0.8217
 2654UDC     C729190   6.815   2.990   3.644  0.7343 -1.1470 -0.0577
 2654UDC     C829191   6.747   3.118   3.584 -0.8875  1.2170  0.2931
 2654UDC     C929192   6.771   3.247   3.669  0.3045  0.2412 -0.7721
 2654UDC    C1029193   6.677   3.363   3.641  1.1276 -0.0817  0.4466
 2654UDC    C1129194   6.532   3.344   3.674 -0.2117  0.9634  0.5534
 2655UDC     C129195   8.407   4.581   9.301  0.2842  0.9942  0.0344
 2655UDC     C229196   8.413   4.609   9.148  0.1230 -0.4190  0.2200
 2655UDC     C329197   8.421   4.751   9.088 -0.3220  0.9233 -0.1970
 2655UDC     C429198   8.477   4.763   8.946 -1.0992  0.1659  1.1786
 2655UDC     C529199   8.405   4.709   8.821  0.7984 -1.4893 -0.0538
 2655UDC     C629200   8.472   4.755   8.692  0.2556  0.4012  1.3118
 2655UDC     C729201   8.609   4.687   8.690 -1.0722  0.1206 -0.1039
 2655UDC     C829202   8.703   4.686   8.567  0.2203 -0.4095 -0.4838
 2655UDC     C929203   8.811   4.589   8.593 -0.5107  0.7256 -0.0673
 2655UDC    C1029204   8.905   4.557   8.477 -1.4479  0.3998 -0.5110
 2655UDC    C1129205   8.843   4.488   8.351  0.5000 -0.6243 -0.9205
 2656UDC     C129206  15.260  17.898   0.274 -0.8258  0.5824  0.0876
 2656UDC     C229207  15.372  17.865   0.381  0.9291 -0.6052  0.4888
 2656UDC     C329208  15.504  17.851   0.318 -0.9012 -0.5863 -1.2436
 2656UDC     C429209  15.518  17.727   0.229 -0.6391 -0.9203 -0.3385
 2656UDC     C529210  15.519  17.596   0.306  1.2395 -0.9939  0.6236
 2656UDC     C629211  15.610  17.541   0.408 -0.4181 -0.0384 -0.4343
 2656UDC     C729212  15.598  17.388   0.453 -0.8035  0.4906 -0.1099
 2656UDC     C829213  15.447  17.340   0.474 -1.5426 -0.4311  0.5748
 2656UDC     C929214  15.440  17.199   0.532  0.1092  0.0778  0.5505
 2656UDC    C1029215  15.294  17.149   0.546  0.4610  0.0563  0.9294
 2656UDC    C1129216  15.248  17.052   0.432  0.5363  0.0855 -0.8703
 2657UDC     C129217  11.301  13.543   7.339  0.5802 -0.1150 -0.7715
 2657UDC     C229218  11.359  13.651   7.243  0.1505  0.4468  0.2332
 2657UDC     C329219  11.463  13.605   7.141 -0.5911  0.8989 -0.3930
 2657UDC     C429220  11.466  13.693   7.014 -0.4840 -0.9191  0.4516
 2657UDC     C529221  11.607  13.666   6.949  0.2325  0.0975 -0.1488
 2657UDC     C629222  11.605  13.655   6.795 -0.8793 -0.3455 -0.1860
 2657UDC     C729223  11.736  13.597   6.733 -0.3183  0.1115 -0.2470
 2657UDC     C829224  11.717  13.562   6.581  0.6572 -1.0981 -0.2662
 2657UDC     C929225  11.846  13.571   6.501 -0.7274 -0.0540  0.2866
 2657UDC    C1029226  11.949  13.493   6.581  0.0753  0.4834  0.9586
 2657UDC    C1129227  12.087  13.470   6.513 -0.6076 -0.6586 -0.6059
 2658UDC     C129228  16.895   7.039  19.795  1.1359  0.0065 -0.4621
 2658UDC     C229229  16.758   7.000  19.738  0.3234  1.1472  0.4324
 2658UDC     C329230  16.749   7.055  19.595 -0.3435 -1.1840  0.4794
 2658UDC     C429231  16.660   6.968  19.505  0.4058  0.8433  0.5058
 2658UDC     C529232  16.673   7.002  19.353  1.0834 -0.1967 -0.1641
 2658UDC     C629233  16.581   6.939  19.239 -0.5642  1.3580 -1.0628
 2658UDC     C729234  16.617   7.002  19.101  0.3148  0.1818  0.3916
 2658UDC     C829235  16.566   6.906  18.990 -1.0427  0.5643  0.0476
 2658UDC     C929236  16.666   6.802  18.941 -0.6845 -1.3606  0.1205
 2658UDC    C1029237  16.613   6.699  18.846 -0.8046 -0.5618  0.1222
 2658UDC    C1129238  16.588   6.565  18.911  0.3071  1.8151  0.2022
 2659UDC     C129239  10.855   6.433   7.653 -0.7902 -0.2287  0.2377
 2659UDC     C229240  10.737   6.524   7.625 -0.0708 -0.2770 -0.5388
 2659UDC     C329241  10.600   6.463   7.636  0.0471 -0.4588 -0.2041
 2659UDC     C429242  10.575   6.446   7.783 -0.0509  0.7004  0.5696
 2659UDC     C529243  10.466   6.365   7.830  0.2126  0.3949 -1.5750
 2659UDC     C629244  10.431   6.218   7.796  0.0295  0.4286  0.4105
 2659UDC     C729245  10.543   6.115   7.805  0.8009  0.2512  0.3404
 2659UDC     C829246  10.554   6.010   7.921 -1.1778 -0.5183  0.7931
 2659UDC     C929247  10.613   6.090   8.047 -1.1983  0.1694  1.1447
 2659UDC    C1029248  10.763   6.105   8.019 -0.8290  0.3715 -0.6901
 2659UDC    C1129249  10.838   5.981   8.066  0.2113 -0.2066  0.1410
 2660UDC     C129250   1.010   3.906   5.356 -1.2964 -0.2425  0.2392
 2660UDC     C229251   0.859   3.875   5.316 -0.6397 -1.3903  0.1365
 2660UDC     C329252   0.847   3.749   5.230  0.2148 -0.3571  0.0704
 2660UDC     C429253   0.962   3.654   5.262 -0.6599  0.3695  0.5359
 2660UDC     C529254   0.981   3.531   5.178 -0.2384  0.4994  0.3187
 2660UDC     C629255   0.950   3.405   5.254 -0.1367  1.2731  0.3008
 2660UDC     C729256   0.807   3.402   5.299 -0.9929  0.2378 -0.0750
 2660UDC     C829257   0.694   3.391   5.201  1.4559 -0.4071  0.0202
 2660UDC     C929258   0.556   3.399   5.278 -0.2988 -0.1766 -0.4002
 2660UDC    C1029259   0.541   3.383   5.426 -0.8679  0.7246 -0.1434
 2660UDC    C1129260   0.420   3.458   5.476  1.0371 -0.2276 -0.2138
 2661UDC     C129261  18.897   4.024   0.583 -1.5877 -0.1033 -0.2568
 2661UDC     C229262  18.778   3.975   0.663  0.2920 -0.0323  0.6610
 2661UDC     C329263  18.695   4.091   0.718  0.0977 -0.7008 -1.2354
 2661UDC     C429264  18.637   4.058   0.863 -0.5556 -0.4723  0.0505
 2661UDC     C529265  18.583   4.194   0.909  0.3182 -0.5865  0.4481
 2661UDC     C629266  18.459   4.219   0.824 -0.3967  0.6319  0.4358
 2661UDC     C729267  18.326   4.221   0.900  0.0588 -1.1400 -0.4801
 2661UDC     C829268  18.217   4.303   0.831 -0.0333  0.5174  0.4386
 2661UDC     C929269  18.092   4.287   0.915  0.0113 -0.3948 -0.4102
 2661UDC    C1029270  17.965   4.337   0.836 -0.5795 -0.4915  0.6018
 2661UDC    C1129271  17.833   4.330   0.916  0.0137  0.5294  0.4695
 2662UDC     C129272  15.582   4.206   7.036 -0.1060  1.1456 -0.2277
 2662UDC     C229273  15.501   4.085   6.977 -0.7153 -0.0658  0.0370
 2662UDC     C329274  15.346   4.090   6.981 -1.9195  1.3457  0.3296
 2662UDC     C429275  15.298   3.996   6.884  0.7881  1.2763 -0.1795
 2662UDC     C529276  15.155   3.947   6.880 -0.9618  0.3579  0.5812
 2662UDC     C629277  15.120   3.888   7.019  0.2322 -0.6775 -0.3834
 2662UDC     C729278  15.197   3.767   7.079 -0.4061 -1.0116 -0.6000
 2662UDC     C829279  15.137   3.699   7.196 -0.2383  0.5447 -0.2564
 2662UDC     C929280  15.007   3.628   7.143  0.4304  0.5806 -0.1758
 2662UDC    C1029281  14.988   3.491   7.215  0.2583 -0.0468  0.4530
 2662UDC    C1129282  14.910   3.381   7.141  0.4356  0.6780 -0.1611
 2663UDC     C129283  19.572  16.618  16.109  0.1048  0.0088  0.2063
 2663UDC     C229284  19.429  16.600  16.035 -0.0588  0.5686 -0.3646
 2663UDC     C329285  19.348  16.720  16.070 -0.7489  0.2613  0.0142
 2663UDC     C429286  19.201  16.710  16.083  0.8099  0.2517  0.1054
 2663UDC     C529287  19.172  16.609  16.197 -1.8237  0.8212 -0.7962
 2663UDC     C629288  19.029  16.556  16.210 -0.1214  1.4142  0.3154
 2663UDC     C729289  19.022  16.442  16.315  0.2508  0.4585  0.7510
 2663UDC     C829290  18.983  16.452  16.465 -1.1758 -0.1234  0.8075
 2663UDC     C929291  19.011  16.323  16.536  0.1758 -0.0100  0.0764
 2663UDC    C1029292  19.157  16.304  16.596  0.8517 -0.9540  0.0649
 2663UDC    C1129293  19.170  16.179  16.684  0.2280  0.5268 -0.5129
 2664UDC     C129294   9.594  10.409   9.099  0.5738 -0.8148  0.6385
 2664UDC     C229295   9.666  10.296   9.176 -0.6838  0.1680 -0.0869
 2664UDC     C329296   9.702  10.163   9.101 -0.3958  0.5678 -0.0379
 2664UDC     C429297   9.854  10.161   9.069  0.6472  0.5534 -0.6432
 2664UDC     C529298   9.916  10.027   9.040  0.1097  0.4349  1.1069
 2664UDC     C629299  10.067  10.042   9.037  0.3628 -0.1872  0.7704
 2664UDC     C729300  10.117  10.169   8.970  0.0571 -0.3710 -0.2580
 2664UDC     C829301  10.267  10.161   8.930 -0.6451  0.3346  1.2566
 2664UDC     C929302  10.319  10.259   8.826  0.5370 -0.0516 -0.0995
 2664UDC    C1029303  10.456  10.235   8.761  1.2007  0.7174 -0.0534
 2664UDC    C1129304  10.517  10.360   8.695 -0.0210  0.0237  0.0815
 2665UDC     C129305  16.293  15.195  10.932  0.9255 -0.1745  0.0645
 2665UDC     C229306  16.300  15.352  10.925  0.8163  1.5407 -0.8469
 2665UDC     C329307  16.325  15.415  10.791 -0.4147 -1.3188  1.2897
 2665UDC     C429308  16.360  15.565  10.804 -1.0633  0.6502 -0.3775
 2665UDC     C529309  16.357  15.642  10.678 -1.0177 -0.0739 -0.2728
 2665UDC     C629310  16.456  15.762  10.686  0.5465  0.2491 -0.2297
 2665UDC     C729311  16.387  15.895  10.682  0.3418  0.7960 -0.1614
 2665UDC     C829312  16.270  15.922  10.580 -0.2659 -0.2738 -0.6052
 2665UDC     C929313  16.317  15.912  10.440 -0.4652  0.3034 -0.3932
 2665UDC    C1029314  16.200  15.906  10.341 -0.2164 -0.3111  0.2379
 2665UDC    C1129315  16.107  15.785  10.357  0.5671  1.2445 -0.0449
 2666UDC     C129316   4.726  17.720   2.540 -0.5618  0.3281  0.7311
 2666UDC     C229317   4.714  17.853   2.612  0.3380 -0.6153  0.6167
 2666UDC     C329318   4.805  17.973   2.595  0.4920 -0.6374 -0.0658
 2666UDC     C429319   4.766  18.098   2.669 -0.4934 -0.4095  0.2188
 2666UDC     C529320   4.866  18.212   2.639  0.1039  0.1325  0.5802
 2666UDC     C629321   4.898  18.212   2.486 -0.3660  0.8174  1.3766
 2666UDC     C729322   4.967  18.348   2.443 -0.5477  1.1217  1.0955
 2666UDC     C829323   5.008  18.349   2.296  1.3747  0.6804  0.3987
 2666UDC     C929324   5.042  18.490   2.243 -0.9379 -0.2318 -0.7822
 2666UDC    C1029325   4.927  18.596   2.233  0.9749 -0.7491  0.0314
 2666UDC    C1129326   4.968  18.745   2.202  0.9237 -0.3504 -0.4244
 2667UDC     C129327  19.461   6.429   0.296 -0.2400  0.1977 -0.4641
 2667UDC     C229328  19.358   6.382   0.392  0.2797 -0.6562 -1.1381
 2667UDC     C329329  19.242   6.315   0.316  0.8426 -0.5139  0.2081
 2667UDC     C429330  19.295   6.213   0.212 -0.7735  0.0365 -0.0118
 2667UDC     C529331  19.277   6.058   0.241 -1.3710 -0.3377  0.3917
 2667UDC     C629332  19.389   6.011   0.334 -0.0681  0.0120  0.3686
 2667UDC     C729333  19.381   5.860   0.344 -0.1701 -0.7097 -0.5320
 2667UDC     C829334  19.515   5.805   0.415 -0.6754  0.2063  0.6482
 2667UDC     C929335  19.501   5.676   0.501  0.0166  0.1238  0.3978
 2667UDC    C1029336  19.598   5.555   0.464  0.3203 -0.3361  0.0322
 2667UDC    C1129337  19.740   5.570   0.522  0.0558 -0.8047  0.3555
 2668UDC     C129338  19.681  10.823  10.266 -0.6059  0.5400 -0.3508
 2668UDC     C229339  19.789  10.766  10.168  0.5122  1.1697  0.2778
 2668UDC     C329340  19.774  10.641  10.081  1.1238 -0.2901  0.0063
 2668UDC     C429341  19.896  10.592  10.007  0.2128 -0.8627 -0.0716
 2668UDC     C529342  19.867  10.455   9.958  0.7880 -0.0518 -0.6813
 2668UDC     C629343  19.982  10.379   9.888 -0.0834 -0.8840  0.8656
 2668UDC     C729344  19.976  10.235   9.900 -0.0875  0.1757 -0.3048
 2668UDC     C829345  20.109  10.162   9.869 -0.4197  1.2366  0.4753
 2668UDC     C929346  20.239  10.231   9.903  0.2659 -0.9616 -0.0606
 2668UDC    C1029347  20.365  10.143   9.866 -1.4434  0.0764  0.7068
 2668UDC    C1129348  20.477  10.235   9.912  0.2078 -0.3082 -0.3926
 2669UDC     C129349   4.648  13.096   6.964  0.1312  1.1590  1.0317
 2669UDC     C229350   4.797  13.082   6.955  0.0032  0.3137  0.9676
 2669UDC     C329351   4.851  12.944   6.904  0.3163  0.4239  0.4509
 2669UDC     C429352   4.881  12.827   7.003 -0.4313 -0.1677 -0.6250
 2669UDC     C529353   5.008  12.846   7.097  0.1410  1.0903 -0.8353
 2669UDC     C629354   5.038  12.718   7.184 -1.3070  0.0366 -0.7434
 2669UDC     C729355   5.150  12.704   7.290  0.1074 -0.0661 -0.1987
 2669UDC     C829356   5.275  12.752   7.202 -0.4923  0.1233  0.1451
 2669UDC     C929357   5.402  12.724   7.284 -0.8564  0.6333 -0.3188
 2669UDC    C1029358   5.480  12.589   7.295  0.1291 -0.1137  0.2261
 2669UDC    C1129359   5.603  12.594   7.390  0.8042  0.0843  0.3370
 2670UDC     C129360   8.771   3.473   8.390  0.9546  0.4751 -0.2099
 2670UDC     C229361   8.879   3.455   8.292 -2.1431  0.3227  1.0201
 2670UDC     C329362   8.880   3.333   8.201 -0.7405 -0.0701 -0.7421
 2670UDC     C429363   8.992   3.322   8.102 -0.5908  0.4707  1.1168
 2670UDC     C529364   8.985   3.203   8.003 -1.2574 -0.7628  0.4479
 2670UDC     C629365   9.061   3.238   7.876 -0.2963 -0.6858 -0.0392
 2670UDC     C729366   9.056   3.151   7.751 -0.4031 -1.0511  0.1506
 2670UDC     C829367   9.159   3.185   7.639  0.0696  0.3801 -0.0514
 2670UDC     C929368   9.155   3.101   7.504 -0.7140  1.0752 -0.5543
 2670UDC    C1029369   9.263   3.103   7.388 -0.0880 -0.2003  0.0035
 2670UDC    C1129370   9.277   3.225   7.291  0.1058 -0.7969  0.4666
 2671UDC     C129371  18.159  14.169   2.022 -0.2451  0.4138 -0.1036
 2671UDC     C229372  18.068  14.097   2.121  0.2143 -1.2722 -0.3037
 2671UDC     C329373  17.932  14.058   2.064 -0.1891 -0.8405 -0.7112
 2671UDC     C429374  17.830  14.004   2.165  0.7186 -0.8019  0.0050
 2671UDC     C529375  17.713  13.937   2.088  0.9636  0.2886 -0.5354
 2671UDC     C629376  17.733  13.793   2.026 -0.6406 -0.7080 -0.7522
 2671UDC     C729377  17.606  13.750   1.954  0.0430 -0.9685 -0.6000
 2671UDC     C829378  17.634  13.631   1.852  0.1966 -0.5516 -0.0251
 2671UDC     C929379  17.559  13.596   1.730  0.4405  0.8173 -0.5241
 2671UDC    C1029380  17.585  13.451   1.690 -0.5692 -0.2260  0.6440
 2671UDC    C1129381  17.507  13.361   1.791  0.1963 -0.6443  0.8902
 2672UDC     C129382  15.029  16.283   4.937 -0.0497  0.4968  1.1934
 2672UDC     C229383  15.005  16.170   4.838  0.6410  0.5376  0.6311
 2672UDC     C329384  14.867  16.108   4.804 -0.8274 -0.3750  0.6316
 2672UDC     C429385  14.838  15.988   4.713 -0.0872  0.8211  0.3428
 2672UDC     C529386  14.690  15.971   4.662 -0.0081  0.5401  1.1602
 2672UDC     C629387  14.629  15.833   4.634  0.2730 -0.2133 -0.4780
 2672UDC     C729388  14.656  15.734   4.746 -0.3286  0.2774 -0.0243
 2672UDC     C829389  14.552  15.624   4.751 -0.7629  0.4424  1.5365
 2672UDC     C929390  14.461  15.632   4.620 -0.9167  0.9609  0.5881
 2672UDC    C1029391  14.323  15.566   4.661 -0.3947 -1.2974  0.7530
 2672UDC    C1129392  14.351  15.437   4.730 -0.1590  1.1814 -0.3811
 2673UDC     C129393   5.387  14.758  17.176  0.1216 -0.4197  0.4843
 2673UDC     C229394   5.393  14.614  17.228 -0.2712  0.1432 -0.6735
 2673UDC     C329395   5.256  14.550  17.256 -0.4450 -0.8112  0.4210
 2673UDC     C429396   5.267  14.406  17.303 -0.3069  0.5773 -0.3591
 2673UDC     C529397   5.280  14.394  17.453 -0.1056 -0.9146  0.4674
 2673UDC     C629398   5.309  14.253  17.509  0.3876  0.2883 -0.5207
 2673UDC     C729399   5.343  14.237  17.664 -0.8094  0.5168  0.3515
 2673UDC     C829400   5.235  14.275  17.767  0.4777 -1.6220 -0.0924
 2673UDC     C929401   5.237  14.426  17.809  0.4652 -0.3327 -0.6927
 2673UDC    C1029402   5.137  14.452  17.926 -0.7240  0.9691 -0.7429
 2673UDC    C1129403   5.126  14.598  17.961 -0.8643 -0.4668  0.7715
 2674UDC     C129404  19.661  16.669  12.030  0.2876 -0.5294  0.5944
 2674UDC     C229405  19.619  16.809  11.963 -0.5175 -0.9081 -0.2361
 2674UDC     C329406  19.686  16.859  11.836  0.0912 -0.2973 -1.4665
 2674UDC     C429407  19.644  16.999  11.811  0.0938  0.9061 -0.2839
 2674UDC     C529408  19.733  17.036  11.695  0.0572 -0.2738  0.0367
 2674UDC     C629409  19.888  17.041  11.716 -0.1018  0.8157  0.9281
 2674UDC     C729410  19.945  17.159  11.798 -0.0875  0.0390 -0.2332
 2674UDC     C829411  20.076  17.144  11.877  0.6016 -0.0878 -0.4456
 2674UDC     C929412  20.093  17.063  12.014 -1.4769 -0.4067 -0.0912
 2674UDC    C1029413  19.961  17.051  12.095 -0.8477  0.1165 -0.5781
 2674UDC    C1129414  20.025  17.003  12.224 -0.9301  0.2106  0.3634
 2675UDC     C129415  14.255   7.921  18.869 -0.1108  0.4873  0.2062
 2675UDC     C229416  14.276   8.000  18.737 -0.5096  0.4642 -0.1248
 2675UDC     C329417  14.207   8.133  18.754  1.2938 -0.1976  0.0808
 2675UDC     C429418  14.191   8.200  18.618  0.4853 -0.5936 -0.5109
 2675UDC     C529419  14.040   8.189  18.586  0.5183 -0.7232  0.6558
 2675UDC     C629420  13.938   8.218  18.700  0.0533  0.9076 -0.2258
 2675UDC     C729421  13.819   8.117  18.717 -0.0813 -0.0075  0.3000
 2675UDC     C829422  13.850   7.972  18.696 -0.7988  0.7036  0.7741
 2675UDC     C929423  13.730   7.881  18.708  0.3404  0.6033 -0.4370
 2675UDC    C1029424  13.751   7.732  18.716 -0.9676  0.6417  0.3085
 2675UDC    C1129425  13.610   7.678  18.717  0.3044 -0.4210  0.1814
 2676UDC     C129426  14.490   9.303   0.400 -0.5324  0.1535  1.0584
 2676UDC     C229427  14.637   9.309   0.344  1.1771  0.3206 -0.2274
 2676UDC     C329428  14.721   9.381   0.448  0.4382 -1.1833  1.1422
 2676UDC     C429429  14.838   9.296   0.506  0.2811  0.8488  1.2959
 2676UDC     C529430  14.919   9.341   0.624 -0.3075  0.0648  0.1643
 2676UDC     C629431  15.013   9.464   0.607 -0.8491  0.0124  0.5589
 2676UDC     C729432  15.142   9.428   0.693  1.3308  0.2495  0.6799
 2676UDC     C829433  15.251   9.534   0.712  0.3574  0.0169 -0.4660
 2676UDC     C929434  15.325   9.512   0.849 -0.5065  0.3884  0.2293
 2676UDC    C1029435  15.433   9.401   0.854 -0.5453  0.2340  0.6078
 2676UDC    C1129436  15.521   9.409   0.977 -0.9822  0.1755  0.3014
 2677UDC     C129437   0.219   5.435  17.887  0.1571 -0.1428 -0.5152
 2677UDC     C229438   0.167   5.289  17.881  1.0468  0.3162 -0.3784
 2677UDC     C329439   0.261   5.187  17.946  0.1560  1.4111 -0.8261
 2677UDC     C429440   0.403   5.241  17.981  0.0624  0.6918 -1.0093
 2677UDC     C529441   0.494   5.121  18.022  0.2000  0.3635  0.1009
 2677UDC     C629442   0.642   5.141  18.023 -0.9973  0.5117 -0.5685
 2677UDC     C729443   0.731   5.031  18.073 -0.5772 -0.8254  0.0805
 2677UDC     C829444   0.712   5.007  18.225  0.5166  0.5691 -0.1843
 2677UDC     C929445   0.771   4.874  18.283 -0.4631  0.1756 -0.0036
 2677UDC    C1029446   0.729   4.837  18.424  0.1282  0.5855 -1.4558
 2677UDC    C1129447   0.788   4.712  18.490 -0.9133 -0.0214 -0.0743
 2678UDC     C129448   2.509   1.063  17.010  0.7761 -0.6062 -1.0012
 2678UDC     C229449   2.410   1.117  17.112 -0.3164  0.0323  0.1029
 2678UDC     C329450   2.279   1.182  17.066 -0.2867 -0.5730 -1.1001
 2678UDC     C429451   2.154   1.093  17.066 -0.2629 -0.5882  0.2906
 2678UDC     C529452   2.029   1.177  17.064 -0.5947 -0.7946 -0.1290
 2678UDC     C629453   1.999   1.282  17.168 -0.1094  0.3049 -0.7533
 2678UDC     C729454   1.855   1.329  17.185  0.3630 -1.5200  0.1375
 2678UDC     C829455   1.807   1.398  17.059  0.1259 -0.6363 -0.5554
 2678UDC     C929456   1.656   1.429  17.057  0.7861  0.5254  0.0991
 2678UDC    C1029457   1.604   1.479  16.924  0.0815 -0.2395 -0.4978
 2678UDC    C1129458   1.680   1.404  16.816  0.2002 -0.1082 -0.4161
 2679UDC     C129459   9.449   6.384  15.921 -0.0793  0.2369 -0.0281
 2679UDC     C229460   9.447   6.510  16.016  0.2488 -0.1471 -0.2061
 2679UDC     C329461   9.372   6.499  16.155  0.2230  0.4897 -0.0676
 2679UDC     C429462   9.443   6.443  16.279 -0.2150 -0.5650 -0.0281
 2679UDC     C529463   9.376   6.500  16.400 -0.4506 -0.2095  0.0076
 2679UDC     C629464   9.402   6.651  16.392  0.6031  0.1900 -0.1780
 2679UDC     C729465   9.550   6.693  16.419  1.0896  0.2573 -0.8403
 2679UDC     C829466   9.574   6.835  16.368  0.2549 -0.5081 -0.5642
 2679UDC     C929467   9.712   6.879  16.418 -0.5898  0.4070 -0.1118
 2679UDC    C1029468   9.804   6.933  16.312 -0.3058 -0.9602  0.1295
 2679UDC    C1129469   9.933   6.984  16.376  0.0447 -0.1209 -1.0825
 2680UDC     C129470   0.081  17.632   3.526  0.0643 -0.4458 -0.4556
 2680UDC     C229471   0.000  17.559   3.640 -0.0417 -0.4192 -0.4391
 2680UDC     C329472  -0.042  17.417   3.608 -0.8275  0.4756  0.6950
 2680UDC     C429473   0.052  17.341   3.517 -0.2402  0.3109  0.4884
 2680UDC     C529474  -0.008  17.216   3.449  0.2766  0.4942  0.2637
 2680UDC     C629475   0.077  17.143   3.336 -1.0392  0.3458 -1.5931
 2680UDC     C729476   0.198  17.073   3.398 -0.7141  0.0466 -0.3080
 2680UDC     C829477   0.315  17.039   3.303 -0.4481  0.4372 -0.0493
 2680UDC     C929478   0.440  16.958   3.359  0.1473  0.1295  0.3611
 2680UDC    C1029479   0.405  16.810   3.366 -0.0444 -0.8363  0.1208
 2680UDC    C1129480   0.507  16.720   3.420 -0.7961  0.2193  0.9692
 2681UDC     C129481   5.851   8.131  10.374 -0.3846 -0.5070 -0.9299
 2681UDC     C229482   5.785   8.004  10.313 -0.1036  0.4687 -0.2466
 2681UDC     C329483   5.736   7.917  10.430 -0.2607  0.4352 -0.9630
 2681UDC     C429484   5.679   7.782  10.386  0.5598  0.1262 -0.4199
 2681UDC     C529485   5.595   7.704  10.481  0.6212 -0.4867  1.0766
 2681UDC     C629486   5.517   7.609  10.387 -0.7788 -0.4811  0.8450
 2681UDC     C729487   5.441   7.669  10.264  0.5503 -0.7024 -0.2974
 2681UDC     C829488   5.427   7.597  10.128 -0.5647  0.1907 -0.3288
 2681UDC     C929489   5.318   7.641  10.028  0.2500  0.4241  0.5883
 2681UDC    C1029490   5.171   7.598  10.055 -0.5584  0.0487 -0.3858
 2681UDC    C1129491   5.071   7.655   9.956 -0.1818  0.4346 -0.2212
 2682UDC     C129492   3.144  13.940   7.369  0.1849 -0.2588  0.3755
 2682UDC     C229493   3.029  13.851   7.320 -0.1328 -0.3189 -0.2341
 2682UDC     C329494   2.923  13.796   7.416 -0.5740 -0.3796  0.2227
 2682UDC     C429495   2.963  13.724   7.548  1.4915  0.6908  0.3394
 2682UDC     C529496   2.992  13.576   7.550 -0.4168  0.9109  0.5902
 2682UDC     C629497   3.102  13.534   7.651  0.0673  1.3618  0.3851
 2682UDC     C729498   3.072  13.396   7.707  0.4892  0.6878  0.8423
 2682UDC     C829499   3.122  13.365   7.849 -0.3140  0.1946 -0.1847
 2682UDC     C929500   3.048  13.266   7.929 -0.0740  0.2535 -0.2077
 2682UDC    C1029501   2.991  13.137   7.849 -0.2746 -0.0138  0.8804
 2682UDC    C1129502   3.118  13.041   7.841 -0.3381  0.2027  0.0943
 2683UDC     C129503   1.186  13.545  10.202  0.0438  0.8822  0.6472
 2683UDC     C229504   1.239  13.654  10.296 -0.1863  0.3243  0.4618
 2683UDC     C329505   1.192  13.791  10.245  0.7768  0.2556 -0.4858
 2683UDC     C429506   1.036  13.805  10.219  0.0292  0.3618 -0.4619
 2683UDC     C529507   1.007  13.866  10.077 -0.0431 -0.3511  0.1807
 2683UDC     C629508   1.066  13.809   9.945 -0.0718  1.7016 -0.2010
 2683UDC     C729509   0.951  13.791   9.839 -1.0113  0.2956  0.2986
 2683UDC     C829510   0.904  13.932   9.788 -0.0733 -0.0995 -0.6503
 2683UDC     C929511   1.025  14.004   9.733  0.3079  0.1764  0.3164
 2683UDC    C1029512   1.002  14.153   9.693 -0.5630  0.5442 -0.4875
 2683UDC    C1129513   1.131  14.224   9.660  0.1380 -0.5003  0.2380
 2684UDC     C129514   3.909  15.671   8.194 -0.8120 -0.1454  0.1775
 2684UDC     C229515   3.894  15.763   8.072 -0.3258 -0.8695 -1.1954
 2684UDC     C329516   3.764  15.827   8.109 -0.3181  0.6606  0.5002
 2684UDC     C429517   3.683  15.852   7.975  0.1852  0.8793  0.8197
 2684UDC     C529518   3.749  15.952   7.881  1.0827  0.8074 -0.4641
 2684UDC     C629519   3.769  16.095   7.941 -0.3983  0.0261 -0.1865
 2684UDC     C729520   3.816  16.194   7.839 -0.9619  1.7024  0.0838
 2684UDC     C829521   3.917  16.281   7.917  0.5114 -0.0480  0.3682
 2684UDC     C929522   4.014  16.354   7.825  0.4008 -1.1306 -0.1407
 2684UDC    C1029523   4.117  16.257   7.773 -0.9358 -0.0192  0.7341
 2684UDC    C1129524   4.233  16.262   7.872  0.8400 -0.5430  0.1733
 2685UDC     C129525  12.921  19.308   9.913 -0.1573  0.0614 -0.2545
 2685UDC     C229526  12.819  19.403   9.980 -1.0550 -0.7602  0.3287
 2685UDC     C329527  12.679  19.345   9.982  0.9834 -0.2258  1.0491
 2685UDC     C429528  12.613  19.316   9.845 -0.8620 -1.1728  1.1432
 2685UDC     C529529  12.471  19.282   9.869  0.6890  0.4290 -0.5991
 2685UDC     C629530  12.377  19.256   9.748 -0.6934  0.4726 -1.4054
 2685UDC     C729531  12.243  19.184   9.776 -0.8636 -0.1787 -0.3526
 2685UDC     C829532  12.133  19.217   9.667 -0.9104 -0.6170  0.4339
 2685UDC     C929533  12.014  19.125   9.704  0.3207  0.3814 -0.5144
 2685UDC    C1029534  11.886  19.132   9.615 -0.6114  0.9004  0.0307
 2685UDC    C1129535  11.888  19.092   9.466 -0.6842 -0.3138  0.0209
 2686UDC     C129536   1.050  13.730  12.934  0.8609  0.1153  1.4842
 2686UDC     C229537   1.062  13.603  13.029 -0.0689 -0.2008 -0.2342
 2686UDC     C329538   1.078  13.650  13.183 -0.1608 -0.7146  0.2666
 2686UDC     C429539   1.051  13.538  13.293  0.4200  0.0011  0.0667
 2686UDC     C529540   1.173  13.444  13.295  0.9239 -0.0684 -0.6638
 2686UDC     C629541   1.295  13.482  13.379 -0.3508  0.2766  0.6311
 2686UDC     C729542   1.346  13.344  13.427  0.1853 -0.3093 -0.6874
 2686UDC     C829543   1.259  13.313  13.549 -0.3175 -0.1216  0.2616
 2686UDC     C929544   1.258  13.158  13.566 -0.2727 -0.1593  0.4315
 2686UDC    C1029545   1.126  13.113  13.628  0.0147 -0.3781  0.4114
 2686UDC    C1129546   1.004  13.155  13.542  0.5201  0.1120 -0.2928
 2687UDC     C129547   8.717  18.700  14.524 -0.8254  0.3221  0.2376
 2687UDC     C229548   8.621  18.827  14.556 -1.2353 -0.1483  0.2004
 2687UDC     C329549   8.666  18.952  14.485  0.6021  0.0824  0.7671
 2687UDC     C429550   8.663  18.953  14.331  0.0418 -0.5606  1.0593
 2687UDC     C529551   8.671  19.102  14.276 -0.9058  0.0820  0.3449
 2687UDC     C629552   8.811  19.166  14.278  1.2687  0.3233 -0.9387
 2687UDC     C729553   8.929  19.098  14.208 -1.4393  0.6300 -0.0146
 2687UDC     C829554   9.041  19.200  14.167 -0.3430  0.6987 -0.0876
 2687UDC     C929555   9.103  19.284  14.277  1.9105 -0.8292 -0.3301
 2687UDC    C1029556   9.194  19.198  14.368 -1.1081 -0.2086 -0.0153
 2687UDC    C1129557   9.239  19.257  14.507  0.7421 -0.3303 -0.4111
 2688UDC     C129558   0.666   8.562  18.053 -0.4393 -0.0392 -0.7034
 2688UDC     C229559   0.759   8.620  18.155  0.2679  0.7870 -0.3690
 2688UDC     C329560   0.886   8.544  18.186 -0.7463 -1.1426 -0.1083
 2688UDC     C429561   0.967   8.614  18.297  1.0358  0.5319  0.7387
 2688UDC     C529562   0.891   8.608  18.435  0.0558 -0.1642  0.3920
 2688UDC     C629563   0.957   8.694  18.543 -0.5450  0.6188 -0.2050
 2688UDC     C729564   0.871   8.717  18.673 -0.1023 -0.9068  1.2337
 2688UDC     C829565   0.924   8.792  18.797 -0.5150  0.0809 -0.6199
 2688UDC     C929566   0.805   8.812  18.892 -0.2957 -0.2179  0.2391
 2688UDC    C1029567   0.709   8.927  18.878 -0.4769 -0.9423 -0.6078
 2688UDC    C1129568   0.768   9.071  18.880  1.0928 -0.0040 -0.3603
 2689UDC     C129569  14.157  13.569  10.783  0.5142 -1.0312  1.0797
 2689UDC     C229570  14.094  13.504  10.904 -0.4703  0.8996  1.2686
 2689UDC     C329571  14.181  13.399  10.983 -0.0743  0.6350 -0.5442
 2689UDC     C429572  14.087  13.329  11.081 -0.1739 -0.2355 -0.5453
 2689UDC     C529573  14.152  13.295  11.213  0.5732  0.9260 -0.4167
 2689UDC     C629574  14.065  13.235  11.320  0.5837  0.8110 -0.0435
 2689UDC     C729575  13.918  13.287  11.340 -0.4872 -0.0706 -0.3832
 2689UDC     C829576  13.809  13.219  11.264 -0.4037  1.1467  0.2915
 2689UDC     C929577  13.672  13.251  11.325 -0.6279 -0.2385 -0.1608
 2689UDC    C1029578  13.653  13.399  11.322 -0.4504  0.1948  0.2842
 2689UDC    C1129579  13.538  13.465  11.393 -0.0345  0.4419 -0.1081
 2690UDC     C129580  17.251   4.519  17.626  1.2250  0.5833 -0.7740
 2690UDC     C229581  17.213   4.512  17.481  0.5446 -0.1140  0.2711
 2690UDC     C329582  17.061   4.502  17.478  0.0209 -0.7017  0.8636
 2690UDC     C429583  17.017   4.378  17.561 -0.1338 -0.5980 -0.4600
 2690UDC     C529584  16.865   4.382  17.582 -0.1187 -0.3341  0.4492
 2690UDC     C629585  16.823   4.525  17.644  0.2633 -0.4145 -0.5193
 2690UDC     C729586  16.668   4.535  17.659  0.1907 -0.2823 -0.1539
 2690UDC     C829587  16.613   4.410  17.730 -0.1935 -0.9060  0.9237
 2690UDC     C929588  16.459   4.422  17.757  0.4307  0.5832  0.2583
 2690UDC    C1029589  16.378   4.540  17.689 -0.4077  0.0764  0.1541
 2690UDC    C1129590  16.267   4.526  17.591  0.4757  1.3820  0.3986
 2691UDC     C129591   2.308   5.082   4.747  0.3659  0.4216 -0.6075
 2691UDC     C229592   2.364   5.223   4.770  0.2798 -0.3151 -0.0954
 2691UDC     C329593   2.378   5.261   4.918 -0.2246  0.0383 -0.0409
 2691UDC     C429594   2.410   5.409   4.935 -0.3159 -1.1522  0.5418
 2691UDC     C529595   2.545   5.471   4.887  1.0914  0.0783 -0.7126
 2691UDC     C629596   2.548   5.625   4.893 -0.1760 -0.4664  0.6198
 2691UDC     C729597   2.653   5.676   4.797  0.6022 -0.3228 -0.4605
 2691UDC     C829598   2.614   5.813   4.744 -0.7414 -0.1697 -1.0615
 2691UDC     C929599   2.703   5.871   4.629 -0.1547  0.3264  0.7628
 2691UDC    C1029600   2.657   6.009   4.583  0.4909  1.0962  0.3032
 2691UDC    C1129601   2.641   6.099   4.703  0.0252  0.8179 -0.8932
 2692UDC     C129602   1.513  17.256  14.760 -1.8568 -0.5742 -1.1960
 2692UDC     C229603   1.519  17.120  14.831 -0.4691  0.0794  0.3030
 2692UDC     C329604   1.464  16.994  14.766 -0.8926  0.5309  0.2306
 2692UDC     C429605   1.323  16.969  14.813  0.1546 -0.4805 -0.1228
 2692UDC     C529606   1.208  17.015  14.726  0.0165 -0.1872  0.1178
 2692UDC     C629607   1.067  17.010  14.783  0.1937  0.3021  0.0715
 2692UDC     C729608   0.949  17.076  14.706 -0.9741 -0.8377  1.0360
 2692UDC     C829609   0.919  17.231  14.719 -1.0002  0.7118 -0.1269
 2692UDC     C929610   0.951  17.274  14.864 -0.9231 -0.0138 -0.6876
 2692UDC    C1029611   0.941  17.422  14.907  0.2828  0.3883 -0.2118
 2692UDC    C1129612   0.806  17.489  14.917 -0.6902 -0.9382 -0.0388
 2693UDC     C129613   0.340   8.655   3.096 -0.6236 -0.5525  0.5924
 2693UDC     C229614   0.262   8.548   3.027  0.2126  0.2978  0.0407
 2693UDC     C329615   0.141   8.602   2.954  0.1651 -0.5293 -0.3084
 2693UDC     C429616   0.182   8.705   2.844 -0.2034 -0.1435  0.0763
 2693UDC     C529617   0.061   8.784   2.780 -0.1528 -0.0490 -1.5650
 2693UDC     C629618   0.113   8.886   2.680  1.1817 -0.1119  0.5213
 2693UDC     C729619   0.044   9.027   2.702  0.3275  0.5922  1.4291
 2693UDC     C829620   0.079   9.090   2.830  0.7208 -0.7268 -0.9549
 2693UDC     C929621   0.028   9.238   2.836 -0.5318  0.2185 -0.5028
 2693UDC    C1029622   0.084   9.299   2.977  1.1849  0.7092  0.0045
 2693UDC    C1129623   0.028   9.228   3.098  0.6253  0.5434 -0.7101
 2694UDC     C129624  11.705  17.013  10.136  0.9516 -0.2148  0.2203
 2694UDC     C229625  11.608  17.137  10.137  0.6763  0.1345  0.2977
 2694UDC     C329626  11.477  17.150  10.046 -0.4099  0.0689 -1.0810
 2694UDC     C429627  11.405  17.014  10.022 -0.2501  1.4429  1.1915
 2694UDC     C529628  11.280  17.026   9.926  0.7097 -1.1024 -0.4506
 2694UDC     C629629  11.173  16.912   9.934  0.0239  0.7196 -0.2418
 2694UDC     C729630  11.037  16.969   9.885 -0.4237  0.0114  0.0576
 2694UDC     C829631  10.908  16.921   9.937  0.3845  0.3356 -0.1291
 2694UDC     C929632  10.889  16.971  10.077  0.5698  0.6137 -0.3194
 2694UDC    C1029633  10.752  16.959  10.145  0.5545  0.8258 -1.2411
 2694UDC    C1129634  10.675  16.827  10.149 -0.2825  0.2075 -0.6661
 2695UDC     C129635  14.343   5.435  17.164  0.3590 -0.7293  1.0984
 2695UDC     C229636  14.478   5.388  17.124  0.3875 -0.0623  0.4744
 2695UDC     C329637  14.566   5.481  17.038  0.0087  0.3311  2.2378
 2695UDC     C429638  14.480   5.501  16.908  0.9224 -0.2127  0.5105
 2695UDC     C529639  14.541   5.604  16.812  0.2888  0.8551  0.1405
 2695UDC     C629640  14.566   5.748  16.869 -0.9356  0.4504  0.1857
 2695UDC     C729641  14.673   5.806  16.766  0.5373  0.4397 -1.2913
 2695UDC     C829642  14.751   5.907  16.847  0.1355 -0.1763  0.2355
 2695UDC     C929643  14.810   6.029  16.766  1.2962  0.2810  0.6849
 2695UDC    C1029644  14.777   6.163  16.833  0.0601 -0.5168  0.3654
 2695UDC    C1129645  14.629   6.204  16.822  0.1928 -0.3213 -0.5976
 2696UDC     C129646   9.171  15.253  18.427  0.7149 -0.0264 -0.4800
 2696UDC     C229647   9.058  15.163  18.378  0.6759 -0.1284  0.3729
 2696UDC     C329648   8.999  15.040  18.456 -0.7753 -0.3717  0.8538
 2696UDC     C429649   8.857  15.000  18.448 -0.5895 -0.1655  0.7179
 2696UDC     C529650   8.817  14.983  18.300 -0.2170  0.2020  0.1673
 2696UDC     C629651   8.671  14.953  18.263  0.3601 -0.1451 -0.1314
 2696UDC     C729652   8.559  15.041  18.335 -0.2019 -0.0942  0.9124
 2696UDC     C829653   8.425  15.032  18.257  1.3672  0.4605  0.4568
 2696UDC     C929654   8.317  15.078  18.356  0.6977 -0.1295 -0.8717
 2696UDC    C1029655   8.363  15.201  18.436  0.1198 -0.0603 -0.6038
 2696UDC    C1129656   8.251  15.256  18.526 -0.5875 -0.7117  0.9738
 2697UDC     C129657  13.901  11.036   6.037 -0.1236 -0.2659  0.0420
 2697UDC     C229658  13.972  11.102   5.916 -0.7293  0.7854 -0.1705
 2697UDC     C329659  14.130  11.093   5.925 -0.4242 -0.1656  0.5300
 2697UDC     C429660  14.216  11.140   5.807 -0.2379 -0.2288  0.3227
 2697UDC     C529661  14.181  11.269   5.737 -0.4604 -1.0437 -0.3512
 2697UDC     C629662  14.274  11.369   5.793  0.3354 -0.3532  0.1345
 2697UDC     C729663  14.217  11.441   5.920 -0.5401 -0.6007  0.9307
 2697UDC     C829664  14.334  11.502   5.996  0.4326  0.2196  0.0631
 2697UDC     C929665  14.480  11.464   6.001  0.4620  0.5848  0.1256
 2697UDC    C1029666  14.509  11.310   6.028 -0.5505  0.9036 -0.4714
 2697UDC    C1129667  14.638  11.264   5.960  0.2717  0.0607  0.4165
 2698UDC     C129668  13.373  16.547  18.881 -0.2714 -0.7354 -0.6095
 2698UDC     C229669  13.330  16.480  19.016  0.3572 -0.4514  0.4494
 2698UDC     C329670  13.436  16.486  19.122  0.4115  0.1878 -1.0865
 2698UDC     C429671  13.389  16.458  19.264 -0.3180 -1.0827  0.3021
 2698UDC     C529672  13.514  16.461  19.353 -1.1993 -0.3825  0.1885
 2698UDC     C629673  13.554  16.604  19.402  0.2542  0.8192 -0.7360
 2698UDC     C729674  13.687  16.611  19.481  0.3876  0.6762  1.0743
 2698UDC     C829675  13.751  16.748  19.501  0.8326 -0.0776 -0.3247
 2698UDC     C929676  13.896  16.714  19.529 -0.7709  0.0456  0.0343
 2698UDC    C1029677  13.950  16.818  19.630  0.4880  0.5404 -0.2172
 2698UDC    C1129678  13.873  16.864  19.759  0.3525 -0.5387  0.0489
 2699UDC     C129679   9.213   9.305  12.019  0.2978 -0.1206  0.5341
 2699UDC     C229680   9.136   9.376  11.901 -0.2283  0.1403  0.1884
 2699UDC     C329681   8.992   9.320  11.871  0.9430 -0.0178 -0.4541
 2699UDC     C429682   8.930   9.434  11.787 -0.1416 -0.6835 -0.3256
 2699UDC     C529683   8.975   9.446  11.639  1.0681 -0.2759 -1.2176
 2699UDC     C629684   8.929   9.334  11.541  0.2581 -0.5791 -1.0240
 2699UDC     C729685   9.048   9.238  11.524  0.0229 -0.3906 -0.2224
 2699UDC     C829686   9.056   9.164  11.390 -0.4833 -0.6816 -0.2344
 2699UDC     C929687   8.961   9.047  11.386 -0.3399  0.2528  0.2287
 2699UDC    C1029688   8.956   8.973  11.247  0.3423 -0.1715  0.5740
 2699UDC    C1129689   8.944   9.051  11.116 -0.4980 -0.0908 -0.1485
 2700UDC     C129690   0.451   1.491   1.592 -0.0911 -0.0768  0.5360
 2700UDC     C229691   0.398   1.632   1.634  0.4487 -0.6087 -0.0009
 2700UDC     C329692   0.424   1.667   1.776 -0.0591  1.0857  0.3450
 2700UDC     C429693   0.572   1.705   1.786 -0.4802  0.3556 -0.4332
 2700UDC     C529694   0.579   1.843   1.724  0.9477 -0.0251  0.2243
 2700UDC     C629695   0.705   1.934   1.752  1.1345  1.3335 -0.6316
 2700UDC     C729696   0.854   1.874   1.731 -0.6558 -0.3991 -0.0691
 2700UDC     C829697   0.966   1.979   1.765 -0.6457  0.6570  1.1449
 2700UDC     C929698   1.045   1.973   1.898 -0.3872  0.0990 -0.4656
 2700UDC    C1029699   0.986   1.954   2.039 -0.0888 -0.4772 -1.1478
 2700UDC    C1129700   0.899   2.075   2.093 -0.8119  0.6573 -0.5485
 2701UDC     C129701  17.431  18.776   7.470  0.7625 -0.4093 -0.4343
 2701UDC     C229702  17.392  18.648   7.542  0.9355  0.7470  0.1767
 2701UDC     C329703  17.426  18.516   7.468 -0.4983  0.3055  0.0676
 2701UDC     C429704  17.347  18.392   7.521 -1.0870  0.1080  0.2597
 2701UDC     C529705  17.422  18.317   7.628 -0.8794  0.1107  0.3907
 2701UDC     C629706  17.569  18.319   7.626  0.1603  0.2557 -0.8781
 2701UDC     C729707  17.643  18.422   7.717 -1.1143  0.0892  0.8552
 2701UDC     C829708  17.798  18.382   7.727  0.8344  0.3188 -0.1854
 2701UDC     C929709  17.884  18.425   7.846 -0.0399 -0.7577  0.3172
 2701UDC    C1029710  18.037  18.450   7.812  0.4442 -0.6557 -0.9706
 2701UDC    C1129711  18.042  18.543   7.681  1.1948  0.2231 -0.5358
 2702UDC     C129712   6.710  10.871  13.510 -0.7299 -1.4422 -0.5813
 2702UDC     C229713   6.797  10.955  13.610 -1.2354 -0.5943 -0.1193
 2702UDC     C329714   6.751  11.098  13.610  1.2262 -0.9409  0.1537
 2702UDC     C429715   6.779  11.182  13.731 -0.6409  0.8746  0.2664
 2702UDC     C529716   6.695  11.305  13.754  0.3860  1.1932  0.5047
 2702UDC     C629717   6.611  11.280  13.881 -0.9148  0.3314 -0.3322
 2702UDC     C729718   6.534  11.407  13.913  0.2893 -0.4506  0.2379
 2702UDC     C829719   6.446  11.413  14.038 -0.7180  0.2879 -0.3510
 2702UDC     C929720   6.351  11.533  14.043  0.7878 -0.1021 -0.5685
 2702UDC    C1029721   6.215  11.499  13.982 -0.4565  0.1692  1.2293
 2702UDC    C1129722   6.110  11.602  14.023  0.7042 -0.7192 -0.3259
 2703UDC     C129723  15.591   9.263  13.545 -0.7633  0.0041 -0.4511
 2703UDC     C229724  15.663   9.131  13.487  0.0719 -1.5935 -0.3296
 2703UDC     C329725  15.769   9.179  13.391 -0.0761 -0.6372  0.6173
 2703UDC     C429726  15.751   9.318  13.328  0.0559 -0.3799 -0.3809
 2703UDC     C529727  15.875   9.350  13.243 -0.7330  0.0669 -0.3801
 2703UDC     C629728  15.905   9.235  13.138  0.7264 -0.2758 -0.5828
 2703UDC     C729729  15.792   9.239  13.034 -0.0034 -0.2620 -0.9525
 2703UDC     C829730  15.832   9.179  12.901  0.2611 -0.2504  0.8651
 2703UDC     C929731  15.981   9.200  12.871  0.2710  0.2302 -0.9780
 2703UDC    C1029732  16.026   9.094  12.772  0.1168  0.7161  0.1530
 2703UDC    C1129733  15.972   9.130  12.633 -0.0620  0.1894 -0.4547
 2704UDC     C129734   3.542   2.429   0.582  0.0181 -0.1164 -0.5379
 2704UDC     C229735   3.683   2.446   0.643  0.3872 -0.3729 -0.2277
 2704UDC     C329736   3.684   2.320   0.736 -0.8058  0.7055 -0.1103
 2704UDC     C429737   3.827   2.305   0.803  0.0668  0.7863  0.9322
 2704UDC     C529738   3.889   2.441   0.843 -0.4845  0.4585 -0.8393
 2704UDC     C629739   4.036   2.437   0.894  1.0948  1.0323  0.3636
 2704UDC     C729740   4.075   2.584   0.919 -0.7098  0.2739 -0.2140
 2704UDC     C829741   4.205   2.614   1.002  0.9602 -0.3394  0.3025
 2704UDC     C929742   4.190   2.605   1.151 -0.1021  0.1301 -0.5997
 2704UDC    C1029743   4.311   2.540   1.217  0.4014  0.9038 -0.5830
 2704UDC    C1129744   4.436   2.631   1.225 -0.4324  0.0300 -0.6707
 2705UDC     C129745  13.292   5.876   2.256 -0.3947 -0.4449 -1.0798
 2705UDC     C229746  13.425   5.925   2.198  0.2949 -0.2923 -0.1977
 2705UDC     C329747  13.508   6.014   2.296  0.2136  0.1891  0.4484
 2705UDC     C429748  13.653   6.031   2.261 -0.0076 -0.2201 -0.0705
 2705UDC     C529749  13.732   6.103   2.373  0.6806  0.3932  0.1595
 2705UDC     C629750  13.873   6.158   2.338 -0.3460  0.2046 -0.4236
 2705UDC     C729751  13.880   6.267   2.231  0.1499 -0.3216  0.6954
 2705UDC     C829752  13.827   6.408   2.281 -1.1514 -0.1599  0.8327
 2705UDC     C929753  13.777   6.495   2.167  0.3594 -0.6231 -0.2439
 2705UDC    C1029754  13.652   6.429   2.102  0.0084 -0.3873 -0.4017
 2705UDC    C1129755  13.537   6.519   2.043  0.2164 -0.1784  0.7618
 2706UDC     C129756  13.571   0.520  11.419 -0.5120  0.3606 -0.7802
 2706UDC     C229757  13.426   0.472  11.441 -0.5039  0.7512  0.1843
 2706UDC     C329758  13.410   0.320  11.469 -0.4715 -0.5973 -0.0623
 2706UDC     C429759  13.263   0.299  11.515  0.2026  0.0840  0.0924
 2706UDC     C529760  13.234   0.146  11.531 -0.1411 -0.3523 -0.5936
 2706UDC     C629761  13.303   0.099  11.660 -0.5545 -0.8632 -0.0144
 2706UDC     C729762  13.325  -0.053  11.669  0.2681  0.0259  0.1346
 2706UDC     C829763  13.204  -0.143  11.698  0.7212 -0.8719 -0.7881
 2706UDC     C929764  13.221  -0.298  11.713  0.9092 -0.4774  0.8098
 2706UDC    C1029765  13.203  -0.361  11.850  1.0534  0.4149  0.0076
 2706UDC    C1129766  13.325  -0.443  11.873  0.1528 -0.5015  0.2275
 2707UDC     C129767   4.000  12.879  18.417  0.0563  0.2747 -0.8916
 2707UDC     C229768   3.954  13.028  18.419 -0.5059  0.1569 -0.5634
 2707UDC     C329769   3.801  13.069  18.431  0.0790  0.7868  0.3916
 2707UDC     C429770   3.723  12.964  18.511  0.3002 -0.4632 -0.5525
 2707UDC     C529771   3.596  12.925  18.443 -0.8716 -0.6947 -0.2502
 2707UDC     C629772   3.477  13.017  18.484  0.3719 -0.6896  0.3009
 2707UDC     C729773   3.345  12.983  18.408  1.7202 -0.2395 -0.6293
 2707UDC     C829774   3.222  13.073  18.443  0.1605  0.1010 -0.6366
 2707UDC     C929775   3.084  13.019  18.395  0.1778  0.0328  0.6099
 2707UDC    C1029776   3.044  12.885  18.463  1.0464  0.0345  0.5007
 2707UDC    C1129777   2.903  12.821  18.428 -0.5353 -0.7176 -1.3050
 2708UDC     C129778  19.085   6.296  15.524 -0.3091  0.5788 -1.3661
 2708UDC     C229779  18.950   6.225  15.525  0.5056 -0.3787  0.2889
 2708UDC     C329780  18.945   6.094  15.600 -0.9522 -1.0382 -0.5992
 2708UDC     C429781  18.985   5.962  15.531 -0.3698 -0.3601  0.7616
 2708UDC     C529782  19.126   5.904  15.546  0.0548  0.2344 -0.1543
 2708UDC     C629783  19.136   5.810  15.430 -0.8224  0.2105  1.0008
 2708UDC     C729784  19.128   5.862  15.292 -0.7638 -0.1936  0.7686
 2708UDC     C829785  19.253   5.945  15.255  0.2434  1.0376  0.5198
 2708UDC     C929786  19.242   6.003  15.114  1.0988 -0.4122 -0.0810
 2708UDC    C1029787  19.333   6.118  15.099 -0.0525 -0.1095 -0.2544
 2708UDC    C1129788  19.330   6.202  14.962  0.9344  0.5496 -0.1744
 2709UDC     C129789   9.848  15.821  14.091  0.2714 -0.3963  0.3833
 2709UDC     C229790   9.970  15.755  14.027 -0.8513  0.8059  0.6071
 2709UDC     C329791   9.946  15.614  13.983 -0.0087 -0.4205 -0.2284
 2709UDC     C429792  10.073  15.582  13.910  0.3226 -0.5826 -0.4168
 2709UDC     C529793  10.065  15.452  13.835 -1.2584 -0.2996 -0.0896
 2709UDC     C629794  10.177  15.424  13.733 -0.5711  0.2803 -1.1373
 2709UDC     C729795  10.228  15.516  13.620 -0.6099  0.1814  0.6541
 2709UDC     C829796  10.379  15.533  13.634 -1.3545  0.2846  1.7619
 2709UDC     C929797  10.449  15.634  13.535  0.7307  0.9539 -0.3682
 2709UDC    C1029798  10.595  15.602  13.498 -0.5286  0.8121  0.1593
 2709UDC    C1129799  10.644  15.556  13.356  0.2693  0.0459 -0.5909
 2710UDC     C129800   5.084  11.673   2.737 -0.1467  0.4585  0.7670
 2710UDC     C229801   5.157  11.743   2.851 -0.7797  0.6464  0.0382
 2710UDC     C329802   5.120  11.685   2.993 -0.8342 -0.0974  0.0210
 2710UDC     C429803   4.986  11.725   3.062  0.4740  0.2386  0.8720
 2710UDC     C529804   4.939  11.853   3.118 -0.7332 -0.5826 -0.4726
 2710UDC     C629805   4.785  11.844   3.154 -1.2590  0.2346 -0.3526
 2710UDC     C729806   4.675  11.874   3.048  0.6303  0.6441  1.2519
 2710UDC     C829807   4.528  11.865   3.086 -0.0691  0.2902 -0.7572
 2710UDC     C929808   4.441  11.916   2.967  0.2100  0.1349 -0.6466
 2710UDC    C1029809   4.303  11.978   2.998  0.2057  0.3166 -0.2446
 2710UDC    C1129810   4.258  12.065   2.876  1.2438 -0.1556  0.1344
 2711UDC     C129811   4.704  13.839  16.517 -0.2865  0.5751  0.2408
 2711UDC     C229812   4.697  13.863  16.368  1.4264  0.3736  0.0010
 2711UDC     C329813   4.699  14.011  16.325  0.0510 -0.8553 -0.4366
 2711UDC     C429814   4.570  14.101  16.309  0.3238  0.0278 -0.4335
 2711UDC     C529815   4.625  14.243  16.295 -0.3358  0.0813  0.0292
 2711UDC     C629816   4.646  14.316  16.428  0.5719  0.7989 -0.1147
 2711UDC     C729817   4.709  14.452  16.403  0.6210 -0.3005 -0.3289
 2711UDC     C829818   4.600  14.556  16.427 -0.0911 -0.9387  0.5299
 2711UDC     C929819   4.656  14.704  16.411  0.4603 -0.1413 -0.0243
 2711UDC    C1029820   4.603  14.816  16.499 -0.1258  0.0320 -0.3297
 2711UDC    C1129821   4.654  14.962  16.454 -0.0007 -0.1546 -0.1152
 2712UDC     C129822   4.163   0.596   6.125 -0.6025 -1.1296 -0.4789
 2712UDC     C229823   4.118   0.617   6.265 -0.9081  0.7530 -0.4941
 2712UDC     C329824   4.015   0.729   6.287  0.0464  0.1272  0.8514
 2712UDC     C429825   4.079   0.863   6.268  0.1303 -0.9312 -0.8578
 2712UDC     C529826   4.036   0.945   6.153  0.0225  0.3987  0.0917
 2712UDC     C629827   4.132   1.069   6.126 -0.4822 -0.0588  0.4820
 2712UDC     C729828   4.058   1.166   6.026  0.2481  1.2789 -0.3696
 2712UDC     C829829   4.128   1.156   5.889 -0.0150 -0.3894 -0.1499
 2712UDC     C929830   4.241   1.245   5.839  0.4959 -0.0341 -0.9394
 2712UDC    C1029831   4.245   1.233   5.693 -0.5053 -0.0731  0.5897
 2712UDC    C1129832   4.273   1.361   5.601  1.2524  1.6907  0.4872
 2713UDC     C129833  15.122   7.069  20.000 -0.8358  0.0730 -0.3234
 2713UDC     C229834  15.206   7.194  20.013 -0.0988 -0.9656  0.2020
 2713UDC     C329835  15.330   7.174  20.105  0.5940  1.0317  0.7732
 2713UDC     C429836  15.398   7.301  20.143 -0.5269 -0.0904  0.6551
 2713UDC     C529837  15.534   7.274  20.202  0.5625  1.3976 -0.8301
 2713UDC     C629838  15.605   7.144  20.256  1.2493 -0.6846  0.1169
 2713UDC     C729839  15.710   7.157  20.368 -0.0708 -0.7881 -0.2748
 2713UDC     C829840  15.664   7.196  20.509  0.8876  0.1602  1.7407
 2713UDC     C929841  15.761   7.260  20.606 -1.1216 -0.3623 -0.1762
 2713UDC    C1029842  15.721   7.217  20.748 -0.6286 -0.3825  0.8273
 2713UDC    C1129843  15.772   7.073  20.778 -0.5199 -0.3488  0.1050
 2714UDC     C129844  15.406   3.616  13.675 -0.9913  0.3940 -1.7238
 2714UDC     C229845  15.398   3.466  13.713  0.6021 -0.3543 -0.4714
 2714UDC     C329846  15.314   3.390  13.616  1.1022 -0.0103 -1.2174
 2714UDC     C429847  15.244   3.272  13.687 -1.3467 -0.1081 -0.5157
 2714UDC     C529848  15.116   3.234  13.618 -0.8177 -0.0198  0.0328
 2714UDC     C629849  15.116   3.079  13.599  0.0063 -0.0624  0.2166
 2714UDC     C729850  15.170   3.033  13.461 -0.4622  0.4398  0.3697
 2714UDC     C829851  15.143   2.893  13.410 -0.3299  0.2448 -0.5148
 2714UDC     C929852  15.165   2.858  13.259  1.0748  0.2105  1.4556
 2714UDC    C1029853  15.140   2.716  13.208  0.1319  0.4851 -0.3010
 2714UDC    C1129854  15.211   2.678  13.077  0.0905  0.8346  0.6227
 2715UDC     C129855  17.380   7.131  14.431 -0.7917 -0.8611  0.7001
 2715UDC     C229856  17.532   7.162  14.411  0.1690 -0.1160  0.9186
 2715UDC     C329857  17.574   7.079  14.288 -0.3592 -0.9954  0.1951
 2715UDC     C429858  17.698   7.120  14.209 -0.6543  0.2117 -0.4924
 2715UDC     C529859  17.668   7.224  14.100 -0.4312  1.1049 -0.1150
 2715UDC     C629860  17.778   7.247  13.999 -1.3792 -0.2854 -0.6458
 2715UDC     C729861  17.748   7.332  13.877 -0.2722 -0.7786 -0.6375
 2715UDC     C829862  17.865   7.362  13.781  0.7338 -0.8796  0.7048
 2715UDC     C929863  17.818   7.438  13.654  0.8429  0.4059 -0.0118
 2715UDC    C1029864  17.701   7.369  13.579 -0.0875  0.0139 -0.0062
 2715UDC    C1129865  17.739   7.286  13.457 -0.8379  0.0730  0.1529
 2716UDC     C129866  12.460  12.350   7.763 -0.7940  0.7838  0.2285
 2716UDC     C229867  12.334  12.321   7.851 -0.1695  0.7588  0.9899
 2716UDC     C329868  12.267  12.449   7.913  1.0640  0.2102  0.0062
 2716UDC     C429869  12.147  12.397   7.996  0.4690 -1.3779  0.8233
 2716UDC     C529870  12.151  12.414   8.144  0.9643 -1.1672  0.1181
 2716UDC     C629871  12.136  12.566   8.178  1.1851  0.3339 -1.0546
 2716UDC     C729872  12.194  12.618   8.310  0.3728  1.0280  0.2155
 2716UDC     C829873  12.136  12.756   8.336 -0.1611 -0.2833  0.4929
 2716UDC     C929874  12.205  12.846   8.438 -0.2484  0.7926 -0.2339
 2716UDC    C1029875  12.232  12.784   8.578 -0.8739 -0.0021 -0.5053
 2716UDC    C1129876  12.362  12.693   8.586 -0.7523 -0.1806  0.5020
 2717UDC     C129877  16.169  18.608  14.851 -0.0001 -0.2206  1.2125
 2717UDC     C229878  16.126  18.753  14.820  0.2397  0.5511  0.1026
 2717UDC     C329879  15.971  18.776  14.834 -0.1651  0.0802 -0.7270
 2717UDC     C429880  15.908  18.909  14.787  0.1003 -0.1706  0.7012
 2717UDC     C529881  15.878  18.926  14.636 -0.9518  1.0065 -0.4126
 2717UDC     C629882  15.815  19.065  14.613 -0.0739 -0.2007  1.3704
 2717UDC     C729883  15.768  19.107  14.477 -0.3273 -0.8219  0.6938
 2717UDC     C829884  15.744  19.254  14.483 -0.5697 -0.5538  0.5698
 2717UDC     C929885  15.737  19.325  14.351 -0.6470  0.1658  1.2021
 2717UDC    C1029886  15.727  19.479  14.354  0.6686  0.5889 -0.4315
 2717UDC    C1129887  15.715  19.540  14.211 -0.8250 -0.1482 -0.3079
 2718UDC     C129888  14.122   3.225  11.253  0.2759  0.1505 -0.2794
 2718UDC     C229889  14.127   3.077  11.210  0.2516 -1.0465 -0.2772
 2718UDC     C329890  14.212   3.052  11.079  0.9162 -0.8264 -1.2378
 2718UDC     C429891  14.162   3.079  10.939  0.0936 -0.5698 -0.1805
 2718UDC     C529892  14.070   2.964  10.900  0.9865 -0.3463 -0.3470
 2718UDC     C629893  14.092   2.931  10.755  0.4327  0.8465  1.1992
 2718UDC     C729894  14.228   2.879  10.734 -0.6706  2.0741  0.1515
 2718UDC     C829895  14.299   2.885  10.593  0.5984 -0.1848  0.7963
 2718UDC     C929896  14.438   2.802  10.579  0.1378 -0.2197 -0.1766
 2718UDC    C1029897  14.418   2.648  10.584 -0.7465 -0.2316 -0.5713
 2718UDC    C1129898  14.522   2.552  10.522 -0.3189  0.9060 -0.9348
 2719UDC     C129899  19.893  17.101   7.011  0.1812  0.5355 -0.0418
 2719UDC     C229900  19.998  17.001   7.062 -0.1677 -0.6933  0.0254
 2719UDC     C329901  20.139  17.005   7.005 -0.8744  0.7143  0.4536
 2719UDC     C429902  20.167  16.981   6.855  0.6803 -1.2557  0.7100
 2719UDC     C529903  20.312  16.977   6.812 -0.2373 -0.1277 -0.6429
 2719UDC     C629904  20.363  16.937   6.677 -0.2066 -0.0903  0.7377
 2719UDC     C729905  20.503  16.944   6.612  0.2220 -0.9101  0.6501
 2719UDC     C829906  20.597  16.829   6.647 -0.5820  1.3965 -0.1408
 2719UDC     C929907  20.727  16.837   6.566  0.4270  0.0052 -0.6919
 2719UDC    C1029908  20.824  16.721   6.595  0.4455 -0.4749  0.7410
 2719UDC    C1129909  20.774  16.582   6.636 -0.5635  0.1492  0.1017
 2720UDC     C129910   3.831   0.445   7.888  0.3080  0.0720 -0.3640
 2720UDC     C229911   3.863   0.290   7.866  0.1362 -0.6296  0.7583
 2720UDC     C329912   4.021   0.272   7.844  1.1025 -0.4168 -0.0245
 2720UDC     C429913   4.046   0.128   7.847  0.1334  0.6145  0.1609
 2720UDC     C529914   4.191   0.079   7.861 -0.2897  0.0104 -0.4653
 2720UDC     C629915   4.216  -0.062   7.810 -0.2449 -0.3836 -0.4700
 2720UDC     C729916   4.177  -0.065   7.664 -0.3672 -0.2896 -0.0546
 2720UDC     C829917   4.150  -0.205   7.605 -0.9197 -0.7776 -0.8582
 2720UDC     C929918   4.101  -0.194   7.466  0.4865 -0.2865  0.5581
 2720UDC    C1029919   4.134  -0.328   7.394  0.1610  0.4892 -0.1536
 2720UDC    C1129920   4.083  -0.346   7.248  0.2323 -0.3091 -0.7581
 2721UDC     C129921  15.023   3.150   9.001  1.0279  0.0164  0.3930
 2721UDC     C229922  14.962   3.288   8.976 -0.8609 -0.1244  0.8806
 2721UDC     C329923  15.000   3.405   9.077 -0.6061  0.4527  0.1180
 2721UDC     C429924  14.894   3.511   9.104 -0.5672  0.3433 -0.8355
 2721UDC     C529925  14.953   3.653   9.087  1.0147  0.3616 -0.1692
 2721UDC     C629926  14.853   3.760   9.135 -0.4186 -0.3000 -0.2451
 2721UDC     C729927  14.922   3.885   9.202 -0.9806  0.7477  0.5275
 2721UDC     C829928  15.020   3.958   9.101  0.9090  0.5811 -1.2152
 2721UDC     C929929  15.126   4.053   9.159 -0.1945 -0.1655 -0.4978
 2721UDC    C1029930  15.199   3.998   9.277 -0.0947 -0.1034  1.2819
 2721UDC    C1129931  15.304   4.089   9.333  0.3342  0.4438  0.5059
 2722UDC     C129932   7.059  12.912   2.075  0.9885 -0.0078 -0.9584
 2722UDC     C229933   7.197  12.959   2.073 -0.7933 -0.4007  0.2997
 2722UDC     C329934   7.278  12.907   1.951  0.1851 -0.1746 -0.3783
 2722UDC     C429935   7.416  12.957   1.963  0.0723  0.5881  0.8263
 2722UDC     C529936   7.480  12.984   1.825 -1.0234  0.2255 -0.2300
 2722UDC     C629937   7.616  13.043   1.874  0.1222 -0.0504 -0.2281
 2722UDC     C729938   7.721  12.956   1.947 -0.8271 -0.0831 -0.1885
 2722UDC     C829939   7.857  12.994   2.027  2.0219 -0.0288  0.2056
 2722UDC     C929940   7.980  13.040   1.951 -0.5115 -0.3460 -0.6939
 2722UDC    C1029941   8.127  13.050   2.010 -0.6303 -0.6227  0.9827
 2722UDC    C1129942   8.214  13.119   1.901 -1.0012 -0.8500 -0.1332
 2723UDC     C129943  16.922   3.821   0.380  0.3329  0.0391  1.3587
 2723UDC     C229944  17.062   3.829   0.447 -0.1208 -1.4133 -0.1721
 2723UDC     C329945  17.046   3.823   0.598 -0.0299  0.2916 -0.0014
 2723UDC     C429946  17.186   3.859   0.654 -0.5173 -0.9989  0.0060
 2723UDC     C529947  17.271   3.749   0.597 -0.2154  0.1180  0.4459
 2723UDC     C629948  17.425   3.772   0.616 -0.4504  0.3455  0.1705
 2723UDC     C729949  17.498   3.637   0.581 -1.1066 -0.3256 -0.1046
 2723UDC     C829950  17.645   3.615   0.611 -1.2987 -0.7192  0.1436
 2723UDC     C929951  17.666   3.596   0.765 -0.7410  0.4422  1.2675
 2723UDC    C1029952  17.599   3.483   0.834 -0.7507  0.1441  0.2787
 2723UDC    C1129953  17.625   3.490   0.978 -0.0244 -0.0516  0.0038
 2724UDC     C129954   9.782  12.837  10.993  0.4996 -0.9474 -0.3514
 2724UDC     C229955   9.906  12.752  10.951  0.6314 -1.2390  1.3715
 2724UDC     C329956   9.930  12.761  10.798  0.3893 -0.4775  0.0532
 2724UDC     C429957   9.811  12.811  10.720  0.1081  0.3377 -0.3987
 2724UDC     C529958   9.842  12.816  10.568 -0.3001 -0.5877 -0.8552
 2724UDC     C629959   9.952  12.924  10.538 -0.5770 -0.3636  0.6537
 2724UDC     C729960  10.059  12.868  10.443  0.5177 -0.4939  0.1448
 2724UDC     C829961  10.194  12.944  10.413  1.6313  0.6206  0.1726
 2724UDC     C929962  10.284  12.862  10.317  0.8924 -0.1984  0.6944
 2724UDC    C1029963  10.433  12.885  10.337  1.2412 -0.6794  0.1289
 2724UDC    C1129964  10.536  12.798  10.257 -0.9325  0.4076  0.5866
 2725UDC     C129965   2.319   0.643   5.621 -0.9956 -1.0111  0.6605
 2725UDC     C229966   2.265   0.563   5.500 -0.1027  0.8263 -0.0607
 2725UDC     C329967   2.112   0.557   5.511  0.0166 -0.3152  0.8812
 2725UDC     C429968   2.033   0.685   5.474 -0.8586 -1.3808 -0.3096
 2725UDC     C529969   1.885   0.708   5.521  0.6610  0.4151 -0.6289
 2725UDC     C629970   1.823   0.838   5.464  0.1759  0.4586  0.1640
 2725UDC     C729971   1.890   0.982   5.487 -0.8002  0.1591  0.8364
 2725UDC     C829972   1.814   1.099   5.424  0.1117 -0.0924 -0.2308
 2725UDC     C929973   1.740   1.060   5.293 -0.7303 -0.8896 -0.0629
 2725UDC    C1029974   1.839   1.022   5.179 -0.9475  0.0750  0.4217
 2725UDC    C1129975   1.763   0.953   5.071 -0.0146  0.9619 -0.0289
 2726UDC     C129976  14.707   7.642   7.509 -0.2093  2.8094  0.0422
 2726UDC     C229977  14.569   7.690   7.451  0.5638  0.4824 -0.7596
 2726UDC     C329978  14.551   7.613   7.319  0.4930  0.6689  0.1668
 2726UDC     C429979  14.433   7.661   7.219 -1.0056 -0.4278  0.7458
 2726UDC     C529980  14.492   7.647   7.073  0.6308  0.5618 -0.9022
 2726UDC     C629981  14.545   7.778   7.027 -0.8722  0.0295  0.7439
 2726UDC     C729982  14.615   7.753   6.895  0.5247  1.3015  0.0394
 2726UDC     C829983  14.644   7.886   6.813 -0.1984 -0.4887  0.0065
 2726UDC     C929984  14.737   7.886   6.690  0.7239 -0.1338 -0.5903
 2726UDC    C1029985  14.747   8.038   6.640  0.5950  0.2206 -0.0297
 2726UDC    C1129986  14.844   8.055   6.524 -0.6881 -0.3915  0.1311
 2727UDC     C129987  17.027  12.309  18.697  0.8385  1.0405 -0.6201
 2727UDC     C229988  16.965  12.218  18.587  0.2018 -0.2574 -0.3028
 2727UDC     C329989  17.020  12.083  18.606  1.2006 -0.0900 -0.0963
 2727UDC     C429990  16.963  11.952  18.545  0.3399  0.5054  0.2831
 2727UDC     C529991  17.018  11.829  18.613 -0.0891 -0.4218  0.3522
 2727UDC     C629992  16.951  11.704  18.559 -0.2686 -0.4662  0.4290
 2727UDC     C729993  16.835  11.651  18.643  0.9629 -1.2117 -0.8070
 2727UDC     C829994  16.695  11.615  18.582  0.5717 -0.0966 -0.1383
 2727UDC     C929995  16.591  11.575  18.687 -0.0618 -0.7064  0.1080
 2727UDC    C1029996  16.489  11.470  18.648 -0.0020  0.0750  0.4495
 2727UDC    C1129997  16.342  11.510  18.624  0.7436  0.9918  0.4993
 2728UDC     C129998  14.297  16.076   3.194  0.1511  0.0152 -0.4525
 2728UDC     C229999  14.314  15.926   3.140 -0.0613 -1.1086  0.4527
 2728UDC     C330000  14.449  15.863   3.183 -0.0196 -0.5027  0.0059
 2728UDC     C430001  14.462  15.727   3.115  0.3976 -0.1290 -0.4877
 2728UDC     C530002  14.581  15.650   3.181  0.6939  0.3267 -0.0633
 2728UDC     C630003  14.715  15.693   3.109 -0.2636 -0.1833 -0.3373
 2728UDC     C730004  14.850  15.657   3.176  0.2430 -0.4106  0.1769
 2728UDC     C830005  14.968  15.747   3.156 -0.6204  0.1981 -0.4563
 2728UDC     C930006  14.942  15.865   3.069 -0.5514 -0.2334  0.0549
 2728UDC    C1030007  14.991  15.840   2.925 -0.4356 -0.6243 -0.4792
 2728UDC    C1130008  14.947  15.955   2.836 -0.0028 -0.1337 -0.3732
 2729UDC     C130009  12.780  10.169   4.335 -0.0779 -1.6803 -1.7247
 2729UDC     C230010  12.930  10.163   4.314  0.4376 -0.5961 -0.8054
 2729UDC     C330011  12.990  10.288   4.268  0.0434  0.6823  0.9400
 2729UDC     C430012  13.016  10.269   4.118  0.1447 -1.4849  0.7621
 2729UDC     C530013  12.906  10.323   4.022  0.4989 -0.1470 -0.3554
 2729UDC     C630014  12.949  10.248   3.891  0.7421  0.2634  0.8657
 2729UDC     C730015  12.855  10.255   3.767  1.5231 -0.3537 -0.4850
 2729UDC     C830016  12.809  10.393   3.722 -0.8031 -0.0767  0.6946
 2729UDC     C930017  12.919  10.489   3.664 -0.2358  0.2268  1.1383
 2729UDC    C1030018  12.851  10.619   3.610  0.2093  0.2193  0.2508
 2729UDC    C1130019  12.829  10.733   3.719  0.1823  0.6768 -0.8962
 2730UDC     C130020   7.725  19.036  18.109  0.5041  0.1741  0.0498
 2730UDC     C230021   7.849  18.945  18.100  1.5780 -0.2908 -0.0662
 2730UDC     C330022   7.841  18.854  17.978 -0.5060 -0.4272  0.7087
 2730UDC     C430023   7.957  18.752  17.960  0.4349 -0.6723  0.3725
 2730UDC     C530024   7.937  18.607  17.969  0.7568 -0.4769 -0.5651
 2730UDC     C630025   8.067  18.546  18.021  0.8024  0.7972 -0.5040
 2730UDC     C730026   8.061  18.399  18.045  0.7336 -0.4209 -0.1101
 2730UDC     C830027   7.918  18.346  18.087  0.0719 -1.0611  0.2160
 2730UDC     C930028   7.906  18.185  18.083 -0.8172  0.0200 -0.6891
 2730UDC    C1030029   7.974  18.132  17.951  1.2030  0.2443  0.2050
 2730UDC    C1130030   7.975  17.976  17.951 -0.2004  1.0891  1.2203
 2731UDC     C130031   8.416  13.469  19.665 -1.0278  0.6002  0.1481
 2731UDC     C230032   8.288  13.490  19.591  0.5435 -0.9006  0.2782
 2731UDC     C330033   8.158  13.488  19.679  0.7193 -0.3972 -0.6371
 2731UDC     C430034   8.019  13.516  19.619 -0.4827 -0.4472 -0.3012
 2731UDC     C530035   7.901  13.482  19.712 -0.3864  0.1076  0.5714
 2731UDC     C630036   7.890  13.340  19.770 -0.1081  0.1159  0.2136
 2731UDC     C730037   7.760  13.301  19.843  0.7766 -0.1886 -0.6538
 2731UDC     C830038   7.728  13.158  19.855  0.7736 -0.3866 -0.1116
 2731UDC     C930039   7.680  13.110  19.720  0.4296  0.3941 -0.0071
 2731UDC    C1030040   7.589  12.988  19.736  0.6211  0.3103  0.1111
 2731UDC    C1130041   7.550  12.908  19.612 -0.6479 -0.7216  0.5745
 2732UDC     C130042  16.690  12.324  13.058 -0.3433  0.6428  0.6045
 2732UDC     C230043  16.768  12.342  13.191  0.6937  0.1562 -0.6465
 2732UDC     C330044  16.694  12.451  13.275  0.3488 -0.4633 -0.5716
 2732UDC     C430045  16.553  12.409  13.306  0.9586 -0.8588  0.3988
 2732UDC     C530046  16.434  12.501  13.290 -0.2917 -0.2495 -0.9575
 2732UDC     C630047  16.294  12.465  13.343  0.5794 -0.7397  0.3829
 2732UDC     C730048  16.160  12.486  13.272 -0.4061  0.4741  0.1163
 2732UDC     C830049  16.037  12.428  13.348  0.2774 -0.6369  0.5715
 2732UDC     C930050  15.919  12.405  13.251  0.4691 -0.7630 -0.0256
 2732UDC    C1030051  15.953  12.345  13.111  0.4503  0.4599  0.1905
 2732UDC    C1130052  15.846  12.363  13.004 -0.2963 -0.3880 -0.3189
 2733UDC     C130053  18.189  19.667  12.845  1.5634 -0.0845 -0.4293
 2733UDC     C230054  18.045  19.671  12.807 -0.0523  0.2962 -1.9684
 2733UDC     C330055  18.022  19.638  12.662  0.1258 -0.1270  0.2229
 2733UDC     C430056  17.876  19.609  12.618 -0.4328 -0.7685 -0.4722
 2733UDC     C530057  17.852  19.573  12.476 -0.4727  0.7729  1.0333
 2733UDC     C630058  17.697  19.552  12.457  0.0751 -0.4408 -0.1540
 2733UDC     C730059  17.657  19.403  12.442  0.7895 -0.5412 -0.3630
 2733UDC     C830060  17.643  19.316  12.570 -0.2254  0.0163 -0.6933
 2733UDC     C930061  17.529  19.348  12.671  0.4983  0.7347 -0.0903
 2733UDC    C1030062  17.394  19.348  12.600 -0.5971  1.1870 -0.1183
 2733UDC    C1130063  17.292  19.439  12.670  0.6568  0.6459 -0.0870
 2734UDC     C130064   6.171   9.909   2.411  0.3259  0.6517  0.2665
 2734UDC     C230065   6.227   9.834   2.534  1.2475 -0.4343  0.1706
 2734UDC     C330066   6.118   9.769   2.628 -0.2041  0.0738 -0.0233
 2734UDC     C430067   6.184   9.748   2.763 -0.5384 -0.7434 -1.0898
 2734UDC     C530068   6.096   9.649   2.837  0.3004  0.5093  0.8871
 2734UDC     C630069   6.041   9.674   2.979 -1.0419 -1.1983 -0.6184
 2734UDC     C730070   5.940   9.793   2.997  0.2547 -0.0955 -0.1711
 2734UDC     C830071   5.796   9.773   3.029  0.3216  0.2987 -0.1911
 2734UDC     C930072   5.720   9.699   2.919  0.2097 -1.0547  0.1053
 2734UDC    C1030073   5.685   9.753   2.786 -1.4119 -0.5104  0.2652
 2734UDC    C1130074   5.632   9.637   2.696  0.3233  0.4085 -0.4787
 2735UDC     C130075   2.021   7.623  13.628  0.6289  0.4036 -0.2665
 2735UDC     C230076   2.015   7.695  13.495  0.5250  0.7642  0.0584
 2735UDC     C330077   2.158   7.706  13.439 -0.2858 -1.5012 -0.4569
 2735UDC     C430078   2.217   7.564  13.434  0.4671  0.3497 -0.6639
 2735UDC     C530079   2.339   7.526  13.357 -0.7836 -0.1497  0.4705
 2735UDC     C630080   2.314   7.497  13.215  0.7145  0.0932  0.2827
 2735UDC     C730081   2.426   7.560  13.132  0.4713 -1.1415 -0.4028
 2735UDC     C830082   2.425   7.510  12.987 -0.5265 -0.1551  0.0367
 2735UDC     C930083   2.335   7.393  12.950  1.2681 -0.5884  0.3995
 2735UDC    C1030084   2.371   7.233  12.959  0.8135  0.0587  0.2355
 2735UDC    C1130085   2.503   7.203  12.889  0.4379 -0.4294 -0.4465
 2736UDC     C130086   4.625  13.171  11.395  0.1783  0.5600  0.0867
 2736UDC     C230087   4.488  13.113  11.377  0.5116  0.0559  0.6388
 2736UDC     C330088   4.432  13.021  11.491  0.1973  0.0262  1.7692
 2736UDC     C430089   4.282  12.984  11.503  0.6826 -0.0535  0.8302
 2736UDC     C530090   4.261  12.878  11.607 -0.1699 -0.2760 -0.0651
 2736UDC     C630091   4.118  12.815  11.604 -1.2430 -0.0322 -0.7076
 2736UDC     C730092   4.068  12.777  11.463 -0.4495  0.4162  0.4770
 2736UDC     C830093   3.950  12.686  11.489 -0.0084  0.4964 -0.7208
 2736UDC     C930094   3.982  12.552  11.557  0.4063  0.6440 -0.0445
 2736UDC    C1030095   3.858  12.469  11.553  0.1263 -0.0863  0.2096
 2736UDC    C1130096   3.867  12.327  11.600  0.6542  0.5883 -0.5089
 2737UDC     C130097  18.742  14.941   5.546  0.2990 -0.9137  0.4366
 2737UDC     C230098  18.666  15.030   5.440  0.1568  1.4425  0.3376
 2737UDC     C330099  18.712  15.176   5.433  0.1425 -1.4765 -0.0836
 2737UDC     C430100  18.783  15.250   5.554  0.6323  0.2221  1.0996
 2737UDC     C530101  18.855  15.383   5.519  0.7297 -0.8508 -0.5620
 2737UDC     C630102  18.932  15.381   5.383  0.3173 -0.5598 -1.2569
 2737UDC     C730103  19.045  15.277   5.385 -0.6281  0.9402  0.4126
 2737UDC     C830104  19.116  15.248   5.251  0.4832 -0.0560  0.5902
 2737UDC     C930105  19.240  15.162   5.255  0.2919  0.4619  0.2218
 2737UDC    C1030106  19.324  15.178   5.129 -0.6724  0.1455 -0.3115
 2737UDC    C1130107  19.321  15.314   5.067 -0.2653  0.2249 -0.3236
 2738UDC     C130108   2.287   0.304  14.698  0.0450  0.9741 -0.0477
 2738UDC     C230109   2.301   0.457  14.685  0.4248  0.1878  0.2497
 2738UDC     C330110   2.341   0.524  14.819  0.3062 -0.1382 -0.1715
 2738UDC     C430111   2.371   0.673  14.794 -0.2191  1.0030 -0.6540
 2738UDC     C530112   2.262   0.731  14.702 -0.4052  1.7397 -0.7967
 2738UDC     C630113   2.288   0.863  14.639 -0.6412 -0.7107  2.1544
 2738UDC     C730114   2.382   0.846  14.512  0.8796  0.2576  0.3053
 2738UDC     C830115   2.493   0.945  14.488 -0.4071  0.0377 -0.1146
 2738UDC     C930116   2.591   0.887  14.392  0.5051  0.5880 -0.1219
 2738UDC    C1030117   2.532   0.838  14.261 -0.3098  1.1976 -0.6308
 2738UDC    C1130118   2.523   0.682  14.238  0.1994 -0.2832 -0.3603
 2739UDC     C130119  12.239  19.062   5.323  0.0606 -0.1489 -0.9374
 2739UDC     C230120  12.220  19.046   5.477 -1.0793  0.5467 -1.7661
 2739UDC     C330121  12.158  18.910   5.515 -0.3181 -0.0710 -0.2161
 2739UDC     C430122  12.240  18.816   5.430 -0.8113 -0.1414  0.3572
 2739UDC     C530123  12.249  18.667   5.456 -0.4410 -0.4778  0.1525
 2739UDC     C630124  12.223  18.577   5.327 -0.5238  0.2069 -0.3223
 2739UDC     C730125  12.354  18.504   5.287  0.0538 -0.5147 -0.0910
 2739UDC     C830126  12.368  18.462   5.145 -0.0089 -0.0212  0.3108
 2739UDC     C930127  12.300  18.337   5.096 -0.1673 -0.1721  0.0019
 2739UDC    C1030128  12.314  18.334   4.942  0.0906  0.4148  0.7929
 2739UDC    C1130129  12.447  18.308   4.872  0.2975  1.2466 -0.7996
 2740UDC     C130130  16.815   5.490  18.413 -0.1285 -0.1245 -0.2700
 2740UDC     C230131  16.946   5.425  18.455  0.5860 -0.3373 -0.6946
 2740UDC     C330132  16.967   5.434  18.611 -0.3278 -0.5814  0.3498
 2740UDC     C430133  17.091   5.370  18.662  0.5565  0.6888  0.9569
 2740UDC     C530134  17.114   5.346  18.813  0.4549  0.3811 -0.1907
 2740UDC     C630135  17.146   5.469  18.909  0.0064 -0.2422  0.3593
 2740UDC     C730136  17.189   5.422  19.041 -0.0177  0.7325  0.0147
 2740UDC     C830137  17.248   5.542  19.114  0.3595  0.0488 -0.2296
 2740UDC     C930138  17.378   5.602  19.052  0.5682  0.8952 -0.4475
 2740UDC    C1030139  17.495   5.542  19.132  1.0848  0.6266 -0.3861
 2740UDC    C1130140  17.620   5.562  19.059  0.2203 -0.1951  0.5770
 2741UDC     C130141  13.639  12.392   6.208  0.4210 -0.0333 -1.8504
 2741UDC     C230142  13.585  12.250   6.216 -0.4189  0.3869  0.6747
 2741UDC     C330143  13.478  12.242   6.326 -0.8773 -0.0958 -0.5103
 2741UDC     C430144  13.371  12.353   6.318 -0.4864  0.4394 -0.0007
 2741UDC     C530145  13.254  12.341   6.412 -0.6484  0.7882 -1.1539
 2741UDC     C630146  13.215  12.475   6.476  0.5899  0.5011 -0.5873
 2741UDC     C730147  13.108  12.461   6.580 -0.4647  0.2515  0.0298
 2741UDC     C830148  12.995  12.377   6.519 -0.1153  0.6545 -0.4116
 2741UDC     C930149  12.894  12.339   6.632  0.3482 -0.1414  0.9755
 2741UDC    C1030150  12.771  12.423   6.598 -0.2154  0.0020 -0.1962
 2741UDC    C1130151  12.730  12.418   6.449  0.2000  0.0097 -0.0641
 2742UDC     C130152   2.054   2.135   6.422  0.3112  0.1207  0.5066
 2742UDC     C230153   2.053   2.003   6.502  1.4869  0.5514  0.3533
 2742UDC     C330154   1.912   1.948   6.545 -1.3793 -0.7584  0.8692
 2742UDC     C430155   1.916   1.797   6.586  0.9293 -0.6461 -0.9085
 2742UDC     C530156   1.776   1.751   6.626 -0.2359  0.5777 -0.7353
 2742UDC     C630157   1.696   1.837   6.732  0.6544  0.3262  0.5203
 2742UDC     C730158   1.563   1.775   6.792 -1.2605 -0.6833 -0.2535
 2742UDC     C830159   1.521   1.847   6.922 -1.1749  0.0852  0.5513
 2742UDC     C930160   1.369   1.875   6.944 -0.0117  0.8483 -1.0598
 2742UDC    C1030161   1.314   1.971   6.824  1.0961  0.5940 -0.3254
 2742UDC    C1130162   1.160   1.984   6.810 -0.0095  0.3123  0.5732
 2743UDC     C130163   8.733   5.344  11.371  0.0549 -0.7714 -0.1976
 2743UDC     C230164   8.688   5.266  11.246  0.2287  0.9630 -1.4184
 2743UDC     C330165   8.610   5.135  11.269 -0.5276  0.5173  0.4854
 2743UDC     C430166   8.554   5.063  11.141  0.3205 -0.3835 -0.2515
 2743UDC     C530167   8.499   4.923  11.167 -0.4263  0.2182 -0.4423
 2743UDC     C630168   8.437   4.881  11.031 -0.5804 -0.0715 -0.0837
 2743UDC     C730169   8.458   4.730  10.991  0.3618  0.3366  0.9040
 2743UDC     C830170   8.383   4.679  10.866 -0.0573  1.1278 -1.6043
 2743UDC     C930171   8.270   4.579  10.873 -0.0960  0.8451 -0.0480
 2743UDC    C1030172   8.123   4.629  10.907 -0.1811  0.1115  0.2476
 2743UDC    C1130173   8.058   4.691  10.777 -0.1528  0.5246  0.6426
 2744UDC     C130174  18.482   3.641   1.735  0.1479  0.0499 -0.2122
 2744UDC     C230175  18.547   3.508   1.702  0.8405 -0.4659  0.0701
 2744UDC     C330176  18.453   3.391   1.710  0.0784 -0.1426  0.3233
 2744UDC     C430177  18.494   3.273   1.615  0.5711  1.0154 -0.9885
 2744UDC     C530178  18.509   3.326   1.469 -0.7548  0.1478 -0.3795
 2744UDC     C630179  18.386   3.385   1.403  0.0381 -0.1573 -0.9286
 2744UDC     C730180  18.405   3.451   1.260 -0.7113 -0.8471 -0.0185
 2744UDC     C830181  18.272   3.509   1.203 -0.2548 -0.1590 -0.4244
 2744UDC     C930182  18.285   3.575   1.069  0.0049 -0.5436  1.1246
 2744UDC    C1030183  18.130   3.594   1.030  0.5405  0.6555  0.0825
 2744UDC    C1130184  18.098   3.669   0.902 -0.9644  0.0017 -0.7279
 2745UDC     C130185   8.497   4.565   7.427 -0.1482 -0.0689  0.2611
 2745UDC     C230186   8.525   4.429   7.485  0.3482 -0.3378 -0.1131
 2745UDC     C330187   8.539   4.322   7.376  0.0656 -0.1267 -0.0565
 2745UDC     C430188   8.419   4.258   7.309  0.2627 -0.8571  0.8926
 2745UDC     C530189   8.454   4.180   7.184  0.2252 -0.0285  0.1585
 2745UDC     C630190   8.336   4.091   7.136  0.2352 -0.1128  1.0835
 2745UDC     C730191   8.355   4.023   6.998  0.8811 -0.0123 -0.1624
 2745UDC     C830192   8.355   3.875   7.029 -0.2977 -0.0791  0.0851
 2745UDC     C930193   8.213   3.827   7.062 -0.6739  1.6055 -0.7582
 2745UDC    C1030194   8.206   3.677   7.098 -1.3110  0.0983  0.4428
 2745UDC    C1130195   8.291   3.605   6.998 -0.1878 -0.0803 -0.2870
 2746UDC     C130196   2.806  10.381   4.703  0.9911 -0.1252  0.3863
 2746UDC     C230197   2.756  10.286   4.810  0.0189  0.4352  0.9445
 2746UDC     C330198   2.852  10.212   4.909 -0.8606 -0.5787 -0.1897
 2746UDC     C430199   2.925  10.090   4.850 -0.7870 -0.6530  0.9559
 2746UDC     C530200   3.003  10.011   4.957 -0.4237  0.5197 -0.4362
 2746UDC     C630201   2.910   9.928   5.051  1.3769  0.4367 -0.4879
 2746UDC     C730202   2.993   9.850   5.158  0.4896 -0.4266 -0.3327
 2746UDC     C830203   2.969   9.702   5.174 -0.0772 -0.4604  0.6796
 2746UDC     C930204   3.054   9.615   5.080 -0.2938 -0.1181 -0.8531
 2746UDC    C1030205   3.025   9.460   5.068 -0.0749 -0.0459 -0.5128
 2746UDC    C1130206   3.145   9.387   5.011  0.0417  0.2889  0.4618
 2747UDC     C130207   9.808  17.109   2.194  0.5947  0.4549 -0.6910
 2747UDC     C230208   9.856  17.251   2.158  0.5462  0.2178  0.1747
 2747UDC     C330209   9.975  17.266   2.067  0.6984  0.9419  0.2934
 2747UDC     C430210  10.027  17.410   2.060 -0.7185  1.0264 -0.6226
 2747UDC     C530211  10.086  17.447   1.925 -0.5211  0.2982 -0.2421
 2747UDC     C630212  10.171  17.563   1.927 -1.2095 -0.8279 -0.7210
 2747UDC     C730213  10.123  17.693   1.866 -0.0023 -0.6218  0.6421
 2747UDC     C830214  10.043  17.789   1.959 -0.5417  0.1054 -0.4507
 2747UDC     C930215  10.015  17.916   1.887  0.9093 -0.4166  0.3266
 2747UDC    C1030216   9.942  17.920   1.750 -0.6011  0.3331 -1.1850
 2747UDC    C1130217   9.934  18.050   1.663 -0.1347 -0.8814 -0.3273
 2748UDC     C130218  12.072  16.719  10.935 -0.6800 -0.5619 -0.7823
 2748UDC     C230219  12.023  16.572  10.931 -0.1772  0.1115 -0.8466
 2748UDC     C330220  12.088  16.479  10.821  0.1964  0.4020  0.7661
 2748UDC     C430221  12.243  16.477  10.814 -0.2562  0.3050 -0.5966
 2748UDC     C530222  12.287  16.392  10.693 -0.0482 -0.1556  0.9302
 2748UDC     C630223  12.437  16.379  10.672  0.8324  1.2964  0.4025
 2748UDC     C730224  12.540  16.328  10.782  0.0599 -0.2393 -1.0440
 2748UDC     C830225  12.527  16.178  10.813 -0.4378  0.5481 -0.6323
 2748UDC     C930226  12.572  16.123  10.950 -0.4059 -1.2607  1.1249
 2748UDC    C1030227  12.459  16.111  11.052 -0.4499 -0.5097  0.1465
 2748UDC    C1130228  12.406  16.244  11.113 -0.1811  0.3051 -0.4357
 2749UDC     C130229  11.367   7.374  12.773  0.0532  0.0258  0.1423
 2749UDC     C230230  11.427   7.369  12.910 -0.1349 -0.9045 -0.1915
 2749UDC     C330231  11.321   7.355  13.027 -0.0558  0.2155 -0.6421
 2749UDC     C430232  11.374   7.292  13.156 -0.0304 -0.7800  0.5021
 2749UDC     C530233  11.365   7.140  13.169  1.1158 -0.2838 -0.2658
 2749UDC     C630234  11.309   7.110  13.304 -0.2097  0.5337 -0.0857
 2749UDC     C730235  11.417   7.124  13.415  1.0134  0.6099 -0.2400
 2749UDC     C830236  11.372   7.173  13.552  0.5162  0.1484  0.9424
 2749UDC     C930237  11.452   7.165  13.685 -1.0901  0.3850 -0.2307
 2749UDC    C1030238  11.481   7.019  13.731 -0.9721  0.0765  0.2887
 2749UDC    C1130239  11.557   7.006  13.864  0.9826 -0.0196 -0.9162
 2750UDC     C130240  14.114   1.247   9.034  0.6647 -1.4409 -0.3919
 2750UDC     C230241  14.240   1.323   9.015 -0.4046  0.0153 -0.7086
 2750UDC     C330242  14.361   1.260   9.099  0.3957  0.8160 -0.2449
 2750UDC     C430243  14.491   1.248   9.012 -0.3094 -0.6856 -1.6253
 2750UDC     C530244  14.556   1.389   9.005  0.5758  0.0453  0.3915
 2750UDC     C630245  14.632   1.421   9.130 -1.9578  0.1780 -0.4418
 2750UDC     C730246  14.664   1.572   9.141 -0.4792  0.6009 -0.4471
 2750UDC     C830247  14.687   1.631   9.283  0.4743  0.7484  0.8690
 2750UDC     C930248  14.807   1.561   9.354  0.6556 -0.5382 -0.5265
 2750UDC    C1030249  14.841   1.624   9.491 -0.5794 -0.8039  0.6608
 2750UDC    C1130250  14.961   1.586   9.574  0.3485  0.3496  0.4186
 2751UDC     C130251  18.657   3.701  13.011 -1.0040 -0.7839 -0.2249
 2751UDC     C230252  18.737   3.593  13.091 -0.3206 -0.5346 -0.2421
 2751UDC     C330253  18.641   3.525  13.190 -0.3365  0.4518 -0.3204
 2751UDC     C430254  18.721   3.413  13.268  1.0587 -0.8237 -0.1664
 2751UDC     C530255  18.646   3.310  13.370  0.0755  0.4753  1.3163
 2751UDC     C630256  18.547   3.367  13.464 -1.1243 -0.4814  1.7785
 2751UDC     C730257  18.492   3.285  13.578 -1.8285  0.0168 -0.7946
 2751UDC     C830258  18.603   3.263  13.687 -0.4529  0.4343 -0.2071
 2751UDC     C930259  18.548   3.246  13.832 -0.0489 -0.2995  0.1069
 2751UDC    C1030260  18.556   3.103  13.893 -0.2268 -0.2421 -0.9450
 2751UDC    C1130261  18.530   2.972  13.823  0.7614  1.0189  0.3143
 2752UDC     C130262  16.090   2.799  15.619 -1.6200 -1.0616 -0.0156
 2752UDC     C230263  16.198   2.704  15.553 -0.1576  1.1190  0.3192
 2752UDC     C330264  16.340   2.741  15.597  0.1754 -0.1126  0.0609
 2752UDC     C430265  16.402   2.730  15.741  1.0414 -0.0934  1.2247
 2752UDC     C530266  16.534   2.805  15.728 -0.6894  1.1463 -0.3367
 2752UDC     C630267  16.583   2.863  15.858  0.6143 -0.2789 -0.4581
 2752UDC     C730268  16.590   2.755  15.965 -0.4234 -1.3266  0.0587
 2752UDC     C830269  16.681   2.788  16.083 -0.2439 -0.2226 -0.7351
 2752UDC     C930270  16.731   2.657  16.146  0.5762 -0.5411  0.1879
 2752UDC    C1030271  16.832   2.651  16.263  0.2221 -0.6052 -0.0307
 2752UDC    C1130272  16.868   2.506  16.278  0.5518 -0.2629  0.5981
 2753UDC     C130273  11.617   1.659   1.777 -0.3811 -0.3226 -0.7610
 2753UDC     C230274  11.678   1.797   1.817 -0.1501  0.1781  0.4391
 2753UDC     C330275  11.666   1.830   1.971  0.1306  0.1974  0.4962
 2753UDC     C430276  11.743   1.961   2.003  0.5854  0.1584 -0.0360
 2753UDC     C530277  11.698   2.048   2.124 -0.0392  0.2387  0.8142
 2753UDC     C630278  11.736   2.196   2.103 -1.3922 -0.4047 -0.4737
 2753UDC     C730279  11.626   2.287   2.053 -0.5521 -0.4639 -0.5685
 2753UDC     C830280  11.638   2.420   1.980 -0.7129 -0.3907  0.0053
 2753UDC     C930281  11.532   2.529   2.020  0.1937  0.8409  0.8020
 2753UDC    C1030282  11.451   2.559   1.895 -0.8180 -0.5049 -0.1392
 2753UDC    C1130283  11.323   2.645   1.922 -0.5919  0.8635 -0.5890
 2754UDC     C130284  19.525   9.295   0.988  0.0157 -0.3503 -0.6173
 2754UDC     C230285  19.428   9.408   1.031 -0.3785 -0.5824 -0.1885
 2754UDC     C330286  19.465   9.539   0.950  0.4308 -0.0513 -0.0977
 2754UDC     C430287  19.431   9.678   1.005  1.3870  0.6197 -0.8193
 2754UDC     C530288  19.455   9.797   0.910 -0.9342  0.8857  0.1313
 2754UDC     C630289  19.446   9.947   0.954 -0.2693  0.1256  0.7552
 2754UDC     C730290  19.398  10.036   0.846  0.9143  0.5978  0.2007
 2754UDC     C830291  19.478  10.039   0.717  1.7371 -0.9630  0.7940
 2754UDC     C930292  19.410  10.126   0.607 -0.3354 -0.6897  0.5850
 2754UDC    C1030293  19.520  10.173   0.515  0.8554  0.2500 -0.4879
 2754UDC    C1130294  19.459  10.293   0.427 -0.0115  0.1376  0.4292
 2755UDC     C130295  10.044  17.475  16.786  0.1682 -0.1812 -0.4026
 2755UDC     C230296  10.117  17.345  16.772 -0.3783  0.3479  0.9739
 2755UDC     C330297  10.057  17.244  16.675  0.3168  0.3188  0.4425
 2755UDC     C430298  10.059  17.285  16.523 -0.4654  0.6745 -0.3954
 2755UDC     C530299  10.196  17.265  16.446  0.5183  0.5274  0.0077
 2755UDC     C630300  10.178  17.279  16.305  0.3819 -0.5407  0.3333
 2755UDC     C730301  10.295  17.228  16.219 -0.5928  0.2038 -0.6291
 2755UDC     C830302  10.310  17.311  16.085  0.2315  1.1988 -0.3232
 2755UDC     C930303  10.336  17.207  15.976 -0.4221 -0.4620 -0.3267
 2755UDC    C1030304  10.356  17.260  15.834 -0.9942 -0.5361 -0.4837
 2755UDC    C1130305  10.238  17.344  15.776  0.2506  0.3053 -0.0831
 2756UDC     C130306  16.462   5.080   9.193 -0.7978  0.0717 -0.2176
 2756UDC     C230307  16.351   5.164   9.118 -1.0457  0.3050 -0.4527
 2756UDC     C330308  16.220   5.173   9.196  0.7575  0.2399 -0.1271
 2756UDC     C430309  16.109   5.212   9.101 -0.4918  0.5887 -0.9813
 2756UDC     C530310  15.968   5.187   9.148  0.5166 -0.0035  0.0416
 2756UDC     C630311  15.871   5.227   9.037  0.4599  0.2838  0.0170
 2756UDC     C730312  15.753   5.319   9.073  0.0311 -0.5644 -0.2537
 2756UDC     C830313  15.682   5.318   9.212 -0.0541 -0.7254  0.0165
 2756UDC     C930314  15.558   5.394   9.222  0.2179  0.5369  0.7565
 2756UDC    C1030315  15.562   5.549   9.211 -0.5716  0.0489  1.0788
 2756UDC    C1130316  15.448   5.632   9.268  0.2049 -0.2511 -0.4482
 2757UDC     C130317   2.485  15.295  16.034  0.2167  0.3296 -0.1679
 2757UDC     C230318   2.620  15.221  16.023 -0.5708 -0.0990  0.0664
 2757UDC     C330319   2.673  15.153  16.149 -0.1401  0.7717  0.3255
 2757UDC     C430320   2.716  15.259  16.250 -0.3172 -0.2204 -0.4297
 2757UDC     C530321   2.709  15.246  16.408 -0.2865 -0.2854  0.3263
 2757UDC     C630322   2.693  15.378  16.484 -1.0715  0.3289 -0.7297
 2757UDC     C730323   2.834  15.416  16.545 -0.1363  0.5922 -0.7087
 2757UDC     C830324   2.882  15.326  16.663 -0.6715 -1.3027 -0.8443
 2757UDC     C930325   2.848  15.385  16.808  0.0286 -0.5932  0.9484
 2757UDC    C1030326   2.960  15.382  16.909 -0.3594  0.1849  0.3964
 2757UDC    C1130327   2.914  15.370  17.053  0.0123  0.2235  0.0753
 2758UDC     C130328   0.303  15.176   9.725  0.0863  0.4258 -0.1156
 2758UDC     C230329   0.189  15.217   9.823  0.0947 -0.2901  0.4433
 2758UDC     C330330   0.184  15.124   9.944  0.0521  0.9218  0.6041
 2758UDC     C430331   0.304  15.146  10.041  0.1869 -0.0076  0.5337
 2758UDC     C530332   0.315  15.047  10.160  0.4915  0.2562 -0.2075
 2758UDC     C630333   0.407  15.083  10.272 -0.1384  1.4675 -0.4315
 2758UDC     C730334   0.560  15.053  10.244  0.2182 -0.6931  0.9097
 2758UDC     C830335   0.668  14.990  10.330  0.6446  0.1522  0.4800
 2758UDC     C930336   0.805  14.942  10.265  0.6081 -0.0253 -0.7225
 2758UDC    C1030337   0.778  14.884  10.129 -0.1296 -0.0496  0.9219
 2758UDC    C1130338   0.890  14.827  10.047  0.0351  0.7396  0.0679
 2759UDC     C130339  13.413  17.255  19.703  0.7026  0.7422 -0.8159
 2759UDC     C230340  13.392  17.172  19.570 -0.6051 -0.3888 -1.3581
 2759UDC     C330341  13.268  17.076  19.598 -0.8242  0.5103 -0.9782
 2759UDC     C430342  13.134  17.133  19.640 -0.3049  0.4716  0.1710
 2759UDC     C530343  13.030  17.024  19.686  0.1617 -0.0645  0.4253
 2759UDC     C630344  13.090  16.914  19.773  1.0746 -1.1165 -0.2148
 2759UDC     C730345  13.152  16.944  19.916 -0.0778  0.5658 -1.1507
 2759UDC     C830346  13.228  16.838  19.989 -0.3034 -0.5994 -0.0690
 2759UDC     C930347  13.211  16.843  20.138  0.5937  0.3668  0.5244
 2759UDC    C1030348  13.100  16.744  20.192 -1.0234 -0.6642 -0.6469
 2759UDC    C1130349  13.114  16.624  20.091 -0.6753 -0.1194 -0.0948
 2760UDC     C130350  11.826   9.134  12.702 -0.0977 -0.2475  0.0710
 2760UDC     C230351  11.765   9.069  12.572 -0.8849  0.5621  0.3698
 2760UDC     C330352  11.692   9.164  12.475 -0.4232 -0.6249 -0.3619
 2760UDC     C430353  11.585   9.248  12.546  0.5340  0.9760  0.3351
 2760UDC     C530354  11.500   9.330  12.446  0.2855  0.3304 -0.4463
 2760UDC     C630355  11.461   9.458  12.521 -1.5420 -0.7510 -0.0750
 2760UDC     C730356  11.361   9.429  12.636 -0.3155 -0.3479 -0.1332
 2760UDC     C830357  11.340   9.540  12.731 -0.0906  0.4963 -0.1256
 2760UDC     C930358  11.261   9.497  12.850 -0.0968  0.5320 -0.2085
 2760UDC    C1030359  11.244   9.622  12.947 -0.2913 -0.6041 -0.8115
 2760UDC    C1130360  11.232   9.583  13.094 -0.4076  0.3396 -0.2870
 2761UDC     C130361   5.952   1.984  15.030 -0.2472  0.4834 -0.3886
 2761UDC     C230362   6.060   1.874  15.053 -0.2570 -0.7165  0.0637
 2761UDC     C330363   5.997   1.723  15.061 -0.8222  0.2041 -0.5440
 2761UDC     C430364   6.106   1.612  15.086 -0.0946  0.2652  0.6412
 2761UDC     C530365   6.106   1.477  15.021  1.5266 -0.3993  0.0012
 2761UDC     C630366   6.223   1.394  15.072  0.1360  0.4509  0.6366
 2761UDC     C730367   6.321   1.381  14.947 -0.0600 -0.2644 -0.7864
 2761UDC     C830368   6.276   1.299  14.823 -0.0065 -0.0304  0.7594
 2761UDC     C930369   6.246   1.145  14.847  0.3225 -1.1001  0.1992
 2761UDC    C1030370   6.377   1.066  14.867 -0.9824  0.4247  1.0286
 2761UDC    C1130371   6.497   1.134  14.803  1.4355 -0.3586 -0.8308
 2762UDC     C130372   7.904  18.327  13.263  0.0609  0.9355  0.1785
 2762UDC     C230373   7.977  18.407  13.151  0.8899 -0.4853  1.2193
 2762UDC     C330374   8.022  18.325  13.026  0.1327 -0.2233 -1.0174
 2762UDC     C430375   7.930  18.272  12.915  0.7669 -1.0356  0.0954
 2762UDC     C530376   8.009  18.223  12.789  0.4599 -0.5218  0.0977
 2762UDC     C630377   7.939  18.149  12.669 -0.0701 -0.5738 -0.1980
 2762UDC     C730378   8.012  18.206  12.539  0.6356 -0.2844 -0.1835
 2762UDC     C830379   7.952  18.330  12.471 -1.3745 -0.2085  0.5944
 2762UDC     C930380   8.054  18.364  12.354  0.4546 -0.7561 -0.3055
 2762UDC    C1030381   8.190  18.327  12.401 -0.3289  0.3136 -0.9671
 2762UDC    C1130382   8.305  18.408  12.326 -0.4513  0.3560 -0.0243
 2763UDC     C130383   7.082  13.488   9.984  0.0005 -0.4759 -0.5069
 2763UDC     C230384   7.005  13.452  10.113  0.7821 -0.1107  0.1950
 2763UDC     C330385   7.068  13.329  10.189  0.6936  0.1918 -0.1283
 2763UDC     C430386   7.018  13.196  10.116  0.6352 -0.0077  0.1901
 2763UDC     C530387   7.054  13.061  10.187 -0.4693  0.2888  0.9309
 2763UDC     C630388   6.992  12.930  10.145 -0.2938  0.3980  0.7679
 2763UDC     C730389   6.906  12.878  10.260 -0.3639  0.8169 -0.7515
 2763UDC     C830390   6.783  12.957  10.312 -0.0854 -0.3487  0.4274
 2763UDC     C930391   6.691  12.880  10.408 -1.0102 -0.6616 -1.1077
 2763UDC    C1030392   6.635  12.744  10.353 -1.4693 -0.4199  0.0397
 2763UDC    C1130393   6.522  12.692  10.444  0.5056 -0.5668  1.5225
 2764UDC     C130394  14.146  17.788  12.314  0.2313 -1.0408  1.7271
 2764UDC     C230395  14.171  17.676  12.405  0.6416 -0.0247  0.1481
 2764UDC     C330396  14.252  17.694  12.538  0.3174 -0.0016 -0.2120
 2764UDC     C430397  14.282  17.564  12.620  0.3512  0.3489 -0.0244
 2764UDC     C530398  14.244  17.441  12.533 -0.4298 -0.3497 -0.0024
 2764UDC     C630399  14.240  17.314  12.623  0.8431 -1.3430 -0.9120
 2764UDC     C730400  14.249  17.188  12.539 -0.7516 -0.5367 -0.9183
 2764UDC     C830401  14.365  17.090  12.566  0.1885  1.4570 -0.6541
 2764UDC     C930402  14.367  16.992  12.449  0.4066  0.4974  0.3124
 2764UDC    C1030403  14.341  16.850  12.483  0.6003 -1.2671  0.4472
 2764UDC    C1130404  14.313  16.778  12.354  0.1218 -0.5462  0.6829
 2765UDC     C130405   0.029   1.719  18.680 -0.7304 -0.5136 -0.4370
 2765UDC     C230406  -0.038   1.806  18.565  0.3220  0.2660  0.8164
 2765UDC     C330407   0.040   1.832  18.431 -0.3782 -0.3386  0.7340
 2765UDC     C430408  -0.060   1.883  18.310  0.5321  0.0860  0.9581
 2765UDC     C530409  -0.125   1.776  18.217 -0.7798 -0.2123 -1.0880
 2765UDC     C630410  -0.187   1.847  18.097  0.3844  0.4744 -0.4323
 2765UDC     C730411  -0.312   1.772  18.046 -0.8398  0.1183 -0.0477
 2765UDC     C830412  -0.309   1.621  18.047 -0.1831  0.3079 -0.0642
 2765UDC     C930413  -0.408   1.567  17.945  0.2665  0.5175  0.0062
 2765UDC    C1030414  -0.423   1.412  17.923 -0.4383 -0.8498 -0.2862
 2765UDC    C1130415  -0.338   1.344  17.812  0.4296  0.2244 -0.2313
 2766UDC     C130416  17.950  13.878  12.415 -1.1593  0.6929 -0.5139
 2766UDC     C230417  18.034  13.744  12.406 -0.0576  0.3760 -1.6922
 2766UDC     C330418  18.178  13.794  12.411 -0.6728  0.6614  0.1928
 2766UDC     C430419  18.289  13.691  12.431  0.1884 -0.0663 -0.5747
 2766UDC     C530420  18.285  13.607  12.562  0.2885  0.5136 -0.5856
 2766UDC     C630421  18.411  13.521  12.575  0.7791  0.0266 -1.2691
 2766UDC     C730422  18.480  13.547  12.708 -0.6051  1.0456 -0.6060
 2766UDC     C830423  18.624  13.494  12.702 -0.6859  0.1027  0.7035
 2766UDC     C930424  18.659  13.347  12.683 -0.9372  0.3721  0.3368
 2766UDC    C1030425  18.807  13.354  12.721 -1.8652 -0.0520 -0.7024
 2766UDC    C1130426  18.845  13.389  12.866  0.6865  0.1596 -0.5554
 2767UDC     C130427   5.020  16.953  15.490  0.2457 -1.1256 -1.2840
 2767UDC     C230428   5.087  16.880  15.605 -0.9567  0.7630  0.4640
 2767UDC     C330429   5.112  16.957  15.738 -0.6088  0.4177  0.0115
 2767UDC     C430430   5.132  16.863  15.855  0.8056 -0.0783 -0.5500
 2767UDC     C530431   5.204  16.936  15.965  0.4409 -1.0780  1.1213
 2767UDC     C630432   5.246  16.839  16.078  0.1045 -0.8645  0.3116
 2767UDC     C730433   5.330  16.920  16.185 -0.2294  0.0565 -0.2414
 2767UDC     C830434   5.473  16.865  16.174  0.5393 -1.1531  0.3895
 2767UDC     C930435   5.554  16.903  16.297 -0.5446  0.4748  0.2237
 2767UDC    C1030436   5.497  16.823  16.416 -0.6828  0.6023 -0.7862
 2767UDC    C1130437   5.588  16.831  16.536  0.6936  0.3308 -1.1580
 2768UDC     C130438  10.256   5.319   9.238 -0.7982 -0.4575 -0.6387
 2768UDC     C230439  10.170   5.221   9.157 -0.2875  1.4942 -0.8536
 2768UDC     C330440  10.051   5.289   9.094 -0.7157 -0.1447 -1.3392
 2768UDC     C430441   9.974   5.179   9.021 -0.6390 -0.8989 -0.3765
 2768UDC     C530442   9.975   5.169   8.861 -0.3108  2.1620 -1.1045
 2768UDC     C630443   9.855   5.097   8.802  0.3577 -0.8866 -0.3107
 2768UDC     C730444   9.872   5.069   8.648  0.5497 -0.3452  0.7337
 2768UDC     C830445   9.986   4.968   8.616 -1.0820 -0.0828 -0.4469
 2768UDC     C930446  10.053   4.974   8.484  0.3053 -0.2144 -0.0464
 2768UDC    C1030447  10.129   5.108   8.456 -0.5357 -0.1690 -0.4211
 2768UDC    C1130448  10.191   5.078   8.320 -0.3223  0.3583 -0.6812
 2769UDC     C130449   6.175   2.949   9.142  1.1256 -0.2974  0.7674
 2769UDC     C230450   6.289   3.042   9.089  0.4379 -0.2156  0.1478
 2769UDC     C330451   6.371   2.963   8.992  0.1059  0.3320  0.3709
 2769UDC     C430452   6.294   2.855   8.911  0.0364 -1.5238 -0.6649
 2769UDC     C530453   6.344   2.718   8.874 -0.1373  0.1142 -0.4163
 2769UDC     C630454   6.297   2.584   8.927  0.8491  0.3838 -0.3228
 2769UDC     C730455   6.359   2.534   9.057 -0.4127 -1.2635  0.0929
 2769UDC     C830456   6.427   2.394   9.018 -0.8262  0.4329 -0.6015
 2769UDC     C930457   6.465   2.315   9.141 -0.4280  1.3040 -0.7840
 2769UDC    C1030458   6.506   2.163   9.135  0.7284 -1.5567 -1.1844
 2769UDC    C1130459   6.436   2.064   9.053  0.2602  1.2998  0.0276
 2770UDC     C130460   4.081   9.475  14.667 -0.1520 -0.6765 -0.8012
 2770UDC     C230461   4.072   9.343  14.583  0.5226 -1.1171 -0.2133
 2770UDC     C330462   4.131   9.229  14.659 -0.1335  0.3848 -0.6065
 2770UDC     C430463   4.141   9.095  14.583 -0.3067 -0.4076 -0.4759
 2770UDC     C530464   4.025   9.066  14.485 -1.1525 -0.4483  0.2581
 2770UDC     C630465   3.997   8.914  14.457 -0.9719 -0.4020  0.6742
 2770UDC     C730466   3.894   8.884  14.353  0.6744  0.1040  0.1068
 2770UDC     C830467   3.748   8.871  14.402  0.6651  0.2258  0.7781
 2770UDC     C930468   3.676   9.007  14.426  0.6401  0.6905  0.1476
 2770UDC    C1030469   3.518   8.996  14.446  0.8861 -0.1102  0.4861
 2770UDC    C1130470   3.455   8.903  14.344 -0.5089  0.1020 -0.0061
 2771UDC     C130471  18.297  16.861   1.084  0.0506  0.1861  0.5296
 2771UDC     C230472  18.398  16.859   0.970 -0.3652 -0.3187 -0.3497
 2771UDC     C330473  18.536  16.873   1.038  0.8502 -0.4033  1.3018
 2771UDC     C430474  18.643  16.881   0.928  0.4586  0.2637  0.4942
 2771UDC     C530475  18.795  16.873   0.967 -0.8879  0.1059  0.5927
 2771UDC     C630476  18.818  16.936   1.106  0.7520  0.2842 -0.1769
 2771UDC     C730477  18.962  16.901   1.158 -0.0552  0.4282  0.5512
 2771UDC     C830478  18.981  16.759   1.213 -1.2971 -0.7222 -0.6580
 2771UDC     C930479  19.115  16.687   1.219  0.1894  0.3868 -0.6040
 2771UDC    C1030480  19.100  16.548   1.284 -0.8733 -0.5139 -0.6768
 2771UDC    C1130481  18.996  16.468   1.197  0.6043  0.5287  0.5303
 2772UDC     C130482   2.384   8.103  10.431  0.6192 -0.3910  0.6808
 2772UDC     C230483   2.494   8.196  10.380 -0.2739  0.6125  0.4405
 2772UDC     C330484   2.549   8.168  10.238 -0.5230 -1.6833  0.2042
 2772UDC     C430485   2.662   8.264  10.194 -0.0059 -0.0637  0.8805
 2772UDC     C530486   2.775   8.205  10.106 -0.2784  0.6121 -0.2436
 2772UDC     C630487   2.861   8.297  10.026 -1.0906  0.6624 -0.1325
 2772UDC     C730488   2.987   8.226   9.977 -0.5035  0.0220 -0.8601
 2772UDC     C830489   3.079   8.197  10.103  0.2780  1.4354  0.6468
 2772UDC     C930490   3.118   8.329  10.170  0.8909  0.2958 -0.2502
 2772UDC    C1030491   3.182   8.443  10.079  0.4976 -0.0217 -0.5034
 2772UDC    C1130492   3.193   8.582  10.144  0.1125  0.0229  0.0192
 2773UDC     C130493  19.765   5.311  12.627  0.1391 -0.8209 -0.2104
 2773UDC     C230494  19.637   5.298  12.545 -0.4317 -0.7968  0.2214
 2773UDC     C330495  19.587   5.418  12.477 -0.2042 -0.2833 -0.9089
 2773UDC     C430496  19.465   5.406  12.384 -0.7102  0.9844 -1.0255
 2773UDC     C530497  19.384   5.514  12.312  0.1090 -0.2627  0.4954
 2773UDC     C630498  19.300   5.583  12.416 -0.1142  0.0607 -0.8732
 2773UDC     C730499  19.159   5.628  12.369 -0.0439  0.0933  0.6138
 2773UDC     C830500  19.104   5.741  12.466 -0.0478  0.7053 -0.1261
 2773UDC     C930501  18.970   5.798  12.430 -0.9319  0.1877  1.7823
 2773UDC    C1030502  18.923   5.912  12.522  0.1153 -0.7188  0.4322
 2773UDC    C1130503  19.000   6.039  12.507  0.8509  1.3286  0.0763
 2774UDC     C130504   1.756   0.296  16.699  0.1945 -0.3624  0.3563
 2774UDC     C230505   1.871   0.189  16.678  0.6131  0.5411  0.2240
 2774UDC     C330506   1.991   0.271  16.723  0.2100  1.0721  0.3482
 2774UDC     C430507   2.131   0.244  16.666  0.4172 -0.6466  0.3023
 2774UDC     C530508   2.229   0.340  16.726  0.5415  0.1249 -1.2810
 2774UDC     C630509   2.356   0.355  16.652  0.1563 -0.2293  0.2821
 2774UDC     C730510   2.480   0.347  16.749  1.0430  0.0599  0.7641
 2774UDC     C830511   2.606   0.390  16.677 -1.2700 -0.0189 -0.7905
 2774UDC     C930512   2.725   0.420  16.771 -0.2344  0.3167 -0.7629
 2774UDC    C1030513   2.708   0.534  16.868 -1.1476  0.0170 -0.0544
 2774UDC    C1130514   2.750   0.670  16.813  0.2164 -0.3532  0.5346
 2775UDC     C130515  18.134   2.436   4.489 -0.0275 -0.7472  0.2228
 2775UDC     C230516  18.083   2.299   4.535 -0.6674  0.5519  0.0269
 2775UDC     C330517  17.967   2.218   4.468 -0.7763  1.6576 -0.1599
 2775UDC     C430518  18.015   2.180   4.328 -0.8578 -1.3284 -0.4435
 2775UDC     C530519  18.125   2.078   4.319  0.5564  0.1452 -0.0965
 2775UDC     C630520  18.167   2.090   4.178  1.0627 -0.6217  0.3259
 2775UDC     C730521  18.067   2.045   4.069  1.1860  1.0503 -1.1947
 2775UDC     C830522  18.116   2.047   3.929  0.3527  0.0929 -1.1948
 2775UDC     C930523  18.016   2.075   3.821  0.5915  0.0594 -0.9913
 2775UDC    C1030524  17.954   2.218   3.826  0.2475  0.5813 -0.8144
 2775UDC    C1130525  17.856   2.261   3.714 -0.7078  0.2274 -0.0412
 2776UDC     C130526  15.506   9.477   2.834 -0.3939 -0.3456 -1.2644
 2776UDC     C230527  15.456   9.593   2.753  0.2165  0.2930 -1.6238
 2776UDC     C330528  15.450   9.552   2.600 -0.1843 -0.0422  0.6886
 2776UDC     C430529  15.401   9.408   2.607 -0.4224 -0.2305  0.0837
 2776UDC     C530530  15.330   9.337   2.491 -1.0110  0.2230  0.0732
 2776UDC     C630531  15.196   9.374   2.432  0.8462 -0.7186 -0.5658
 2776UDC     C730532  15.093   9.262   2.432  0.1484  1.0056 -0.3715
 2776UDC     C830533  15.003   9.249   2.558 -0.6515 -0.3312  0.1757
 2776UDC     C930534  14.849   9.219   2.538 -0.2060  0.7978  0.5132
 2776UDC    C1030535  14.773   9.258   2.666  0.3124  0.4412 -0.6376
 2776UDC    C1130536  14.656   9.159   2.670 -0.0091  1.2191 -0.6049
 2777UDC     C130537   6.646   5.093   5.207 -0.0943 -0.1102  0.2791
 2777UDC     C230538   6.629   5.131   5.356  0.0032  0.6148  0.9069
 2777UDC     C330539   6.688   5.043   5.466 -0.7889  0.1911 -0.8963
 2777UDC     C430540   6.683   5.106   5.605  0.5763  0.0370  0.5194
 2777UDC     C530541   6.725   5.008   5.717 -0.1935  0.2912 -0.3160
 2777UDC     C630542   6.599   4.974   5.797  0.3522  0.1874 -0.4193
 2777UDC     C730543   6.602   4.839   5.871 -0.0700  0.2862 -0.4277
 2777UDC     C830544   6.454   4.790   5.895  0.7494  0.5602  0.2643
 2777UDC     C930545   6.457   4.679   6.004 -0.0319  0.1770  0.2756
 2777UDC    C1030546   6.511   4.553   5.933 -0.0905  0.1633  0.3903
 2777UDC    C1130547   6.533   4.440   6.031 -0.1265  0.0485 -1.8434
 2778UDC     C130548  16.414  18.630  13.933 -0.1311 -0.6862 -1.3246
 2778UDC     C230549  16.518  18.602  13.826  1.0250 -0.9507 -0.6465
 2778UDC     C330550  16.477  18.466  13.756 -0.0046  0.4250  0.5176
 2778UDC     C430551  16.470  18.336  13.842  0.6995  0.3998 -0.4419
 2778UDC     C530552  16.453  18.193  13.783  2.1610 -0.1988 -0.0566
 2778UDC     C630553  16.570  18.104  13.822  0.0890 -0.4615 -0.9309
 2778UDC     C730554  16.574  17.947  13.802 -0.1668 -0.9080 -0.9237
 2778UDC     C830555  16.656  17.870  13.907 -0.5324  0.1712  0.8980
 2778UDC     C930556  16.805  17.898  13.881 -0.6046  0.5853 -0.2802
 2778UDC    C1030557  16.918  17.831  13.964 -0.1619  0.5723  0.6331
 2778UDC    C1130558  17.052  17.907  13.944 -0.7434  0.0569 -1.1740
 2779UDC     C130559  18.906  13.930   6.057  0.1859  0.3382  0.4103
 2779UDC     C230560  18.852  13.948   6.198  0.9694 -0.7979  0.7663
 2779UDC     C330561  18.936  13.872   6.293 -0.6770  0.2365 -0.1541
 2779UDC     C430562  19.085  13.856   6.268  0.3463 -0.3275 -0.0404
 2779UDC     C530563  19.160  13.744   6.340 -0.2374  0.1394 -0.6434
 2779UDC     C630564  19.315  13.771   6.325  0.4572  0.1295  0.4887
 2779UDC     C730565  19.354  13.917   6.309  0.8005  0.4272 -0.1438
 2779UDC     C830566  19.502  13.948   6.286  0.1840  0.7179  0.2231
 2779UDC     C930567  19.606  13.885   6.377 -0.3709 -0.3197 -0.3398
 2779UDC    C1030568  19.742  13.950   6.366 -1.8984  1.0354 -0.5090
 2779UDC    C1130569  19.845  13.925   6.480  0.1828 -0.0991 -0.3604
 2780UDC     C130570   6.957   7.327  18.571  0.2704 -0.4726 -0.4184
 2780UDC     C230571   6.805   7.359  18.588  1.0502 -0.9505 -0.5642
 2780UDC     C330572   6.768   7.514  18.589 -0.2422 -0.4847 -0.5591
 2780UDC     C430573   6.832   7.615  18.491  0.1658  0.7156 -0.3617
 2780UDC     C530574   6.822   7.607  18.338 -0.1968 -0.3206 -0.0634
 2780UDC     C630575   6.697   7.689  18.295 -0.6186 -0.3848 -0.3318
 2780UDC     C730576   6.675   7.699  18.141 -0.2812  0.9931 -0.5946
 2780UDC     C830577   6.734   7.571  18.087  0.2000  0.9995 -1.1342
 2780UDC     C930578   6.740   7.575  17.934 -0.5078 -0.5884  0.5205
 2780UDC    C1030579   6.623   7.611  17.849  0.8442  0.2040  1.1831
 2780UDC    C1130580   6.649   7.620  17.696  0.8406  0.3108 -0.4343
 2781UDC     C130581  19.259   5.990   0.994  0.6704 -0.2825  0.5281
 2781UDC     C230582  19.257   6.132   1.051 -0.9578  0.1435 -0.3237
 2781UDC     C330583  19.248   6.260   0.971 -1.3850 -0.0472 -0.7714
 2781UDC     C430584  19.365   6.304   0.881  0.7878 -0.3984 -0.1078
 2781UDC     C530585  19.490   6.338   0.959 -0.6957 -0.1509  1.0739
 2781UDC     C630586  19.587   6.391   0.848 -0.0390  0.4824 -0.3475
 2781UDC     C730587  19.567   6.536   0.799  0.1771  0.4759 -0.2038
 2781UDC     C830588  19.685   6.611   0.755 -0.6340 -0.0845  0.5333
 2781UDC     C930589  19.639   6.758   0.745  0.2554  0.0096 -0.9234
 2781UDC    C1030590  19.734   6.871   0.700 -0.5788 -0.2679 -0.8270
 2781UDC    C1130591  19.867   6.860   0.788  0.6194  0.0539  1.1272
 2782UDC     C130592  17.897  15.948   1.694 -0.3928  0.6085  0.4701
 2782UDC     C230593  18.047  15.983   1.689 -0.1637 -0.8258 -1.4500
 2782UDC     C330594  18.107  16.015   1.554  0.3478  0.0586 -0.0196
 2782UDC     C430595  18.251  16.077   1.555  0.4669 -0.1894  0.2907
 2782UDC     C530596  18.372  15.989   1.585  0.8716 -0.5830 -0.4412
 2782UDC     C630597  18.506  16.061   1.581  0.0913  0.2471 -0.1515
 2782UDC     C730598  18.562  16.094   1.443 -0.9558 -0.3643  0.2702
 2782UDC     C830599  18.679  16.196   1.424 -1.2755 -0.0757 -0.2273
 2782UDC     C930600  18.654  16.323   1.506  1.3853  0.5856  0.2205
 2782UDC    C1030601  18.740  16.439   1.480 -0.5293 -1.2093 -0.3716
 2782UDC    C1130602  18.698  16.592   1.510 -0.5381 -0.1007 -0.3946
 2783UDC     C130603  12.369   3.520   0.454 -0.5829 -1.0625  0.5880
 2783UDC     C230604  12.465   3.394   0.461  0.2354 -0.0137  0.3259
 2783UDC     C330605  12.599   3.432   0.524  0.5030 -0.3620 -0.3949
 2783UDC     C430606  12.682   3.557   0.474  0.2029  1.0201  0.0520
 2783UDC     C530607  12.760   3.602   0.588 -0.3508 -0.5638  0.4480
 2783UDC     C630608  12.912   3.580   0.578  0.3006  0.9188 -0.2218
 2783UDC     C730609  12.974   3.692   0.652  0.7859 -0.4187  0.3088
 2783UDC     C830610  13.124   3.713   0.673  0.7123  0.3209  0.5822
 2783UDC     C930611  13.162   3.855   0.632  0.1419  0.5885 -0.1570
 2783UDC    C1030612  13.118   3.891   0.492  0.4780 -0.5893 -1.4942
 2783UDC    C1130613  13.225   3.980   0.422  1.2737 -0.1915  0.0800
 2784UDC     C130614   3.456   1.386   4.340  0.1317  0.5057 -0.0499
 2784UDC     C230615   3.445   1.368   4.188  0.2465  0.2909  0.4147
 2784UDC     C330616   3.484   1.498   4.100 -0.6245 -0.5781  0.3603
 2784UDC     C430617   3.378   1.612   4.112 -0.1172  0.1335 -0.7553
 2784UDC     C530618   3.418   1.715   4.006 -1.7705 -0.8183 -0.4480
 2784UDC     C630619   3.361   1.701   3.859 -0.8030 -0.0623  0.5775
 2784UDC     C730620   3.384   1.812   3.759  0.1463 -0.9242  0.3815
 2784UDC     C830621   3.536   1.839   3.741 -0.4883 -0.5817  0.7107
 2784UDC     C930622   3.581   1.974   3.679  0.2000 -0.9620 -0.6392
 2784UDC    C1030623   3.561   1.999   3.526  0.3681  0.4745 -0.8834
 2784UDC    C1130624   3.555   2.143   3.490 -0.1097 -0.1207 -0.4105
 2785UDC     C130625  10.765   9.294  17.123  0.3244  0.2437  0.1608
 2785UDC     C230626  10.796   9.160  17.182 -1.1463 -0.5713  0.8430
 2785UDC     C330627  10.815   9.169  17.333 -0.0384  0.2068  0.4506
 2785UDC     C430628  10.762   9.304  17.382 -0.3149 -0.3598 -0.3924
 2785UDC     C530629  10.811   9.393  17.499  0.0800  1.2256 -0.3153
 2785UDC     C630630  10.782   9.539  17.468  0.1290  0.0383 -0.3483
 2785UDC     C730631  10.757   9.623  17.588  0.1290 -0.3169  0.4166
 2785UDC     C830632  10.679   9.546  17.694 -0.2138 -1.1237  0.1669
 2785UDC     C930633  10.630   9.631  17.817 -1.4952 -0.7070  0.0325
 2785UDC    C1030634  10.553   9.545  17.918  0.1458  0.1756  1.0697
 2785UDC    C1130635  10.446   9.631  17.994 -0.5954  0.7243 -0.8784
 2786UDC     C130636   3.381  14.421  10.387 -0.0977 -0.7471 -0.2627
 2786UDC     C230637   3.377  14.449  10.236  0.9295 -0.1772  0.2517
 2786UDC     C330638   3.496  14.417  10.143 -0.9929 -0.1153 -0.5969
 2786UDC     C430639   3.467  14.422   9.992 -1.4569 -0.6468  0.1376
 2786UDC     C530640   3.529  14.307   9.911 -0.6451  0.3262 -0.3346
 2786UDC     C630641   3.466  14.168   9.943  0.0543  0.1394 -0.9625
 2786UDC     C730642   3.523  14.083  10.065 -0.4565 -0.3774  0.4795
 2786UDC     C830643   3.489  13.935  10.078  1.0359  0.5796 -0.4806
 2786UDC     C930644   3.497  13.870  10.226  0.2943 -0.4233 -0.5962
 2786UDC    C1030645   3.631  13.895  10.302 -0.3659 -0.0056  0.6270
 2786UDC    C1130646   3.642  13.795  10.415  0.1705 -0.4374 -0.4546
 2787UDC     C130647  19.288   8.822   2.934 -0.4267  0.2126 -1.1915
 2787UDC     C230648  19.179   8.935   2.944  0.1882  0.7925  0.2988
 2787UDC     C330649  19.228   9.073   2.916  0.7276  0.2207  0.8662
 2787UDC     C430650  19.243   9.112   2.764 -0.0695  0.0107 -0.6642
 2787UDC     C530651  19.155   9.035   2.658  0.7570 -0.8278 -0.5369
 2787UDC     C630652  19.124   9.130   2.537 -0.0329 -0.2910 -0.3656
 2787UDC     C730653  18.974   9.154   2.476 -0.2299  0.6722  0.2704
 2787UDC     C830654  18.953   9.259   2.363  0.5089  0.0872 -0.1980
 2787UDC     C930655  18.805   9.247   2.307  1.2994  0.5276  0.3456
 2787UDC    C1030656  18.705   9.222   2.424 -0.7473 -0.5781 -0.0420
 2787UDC    C1130657  18.559   9.262   2.396 -0.6570  0.2619 -0.4960
 2788UDC     C130658   6.676  15.615  19.661  0.4278  0.8100 -0.1476
 2788UDC     C230659   6.651  15.496  19.563  0.1435 -0.3426  0.0574
 2788UDC     C330660   6.649  15.573  19.430 -0.0962  0.3395  1.1386
 2788UDC     C430661   6.590  15.496  19.315  0.3019  0.5177  0.7361
 2788UDC     C530662   6.660  15.356  19.278 -0.6841  0.0786  0.7648
 2788UDC     C630663   6.598  15.287  19.156  0.7230 -0.4860 -0.3991
 2788UDC     C730664   6.671  15.163  19.103 -0.4582 -0.4405  0.6262
 2788UDC     C830665   6.601  15.032  19.141 -0.1267 -0.4027 -0.0700
 2788UDC     C930666   6.657  14.911  19.057 -0.4573 -0.4517 -0.5338
 2788UDC    C1030667   6.568  14.794  19.037 -0.0111 -0.3243  0.3271
 2788UDC    C1130668   6.416  14.813  19.018  0.2403  0.0023  0.2187
 2789UDC     C130669  14.391  14.389   0.315  0.1972 -0.6813 -0.3422
 2789UDC     C230670  14.516  14.447   0.386 -0.6990  0.0149  1.3822
 2789UDC     C330671  14.586  14.553   0.284  0.4875  1.3546 -0.3394
 2789UDC     C430672  14.660  14.471   0.175 -0.3962  0.6688 -0.7533
 2789UDC     C530673  14.714  14.557   0.061  0.3758  0.4379 -0.0812
 2789UDC     C630674  14.828  14.497  -0.016 -0.1197 -0.6965  0.8588
 2789UDC     C730675  14.799  14.356  -0.036 -0.0068  0.1798 -1.3106
 2789UDC     C830676  14.891  14.279  -0.126 -0.9641  0.4790 -0.5915
 2789UDC     C930677  15.044  14.300  -0.093 -0.4756  0.7447 -0.2072
 2789UDC    C1030678  15.143  14.219  -0.191 -0.1546  0.5630  0.2759
 2789UDC    C1130679  15.080  14.084  -0.223  0.6678 -0.5429  0.5915
 2790UDC     C130680  11.373  17.841  19.142 -0.4749  0.1340  0.0617
 2790UDC     C230681  11.423  17.823  19.286  0.6844 -0.2569  0.1195
 2790UDC     C330682  11.477  17.966  19.342 -1.2186 -0.4594 -0.9699
 2790UDC     C430683  11.512  17.971  19.487 -0.1996 -0.3492 -0.5348
 2790UDC     C530684  11.401  17.899  19.565 -0.4738 -0.6405 -0.9387
 2790UDC     C630685  11.292  17.969  19.639 -0.9785 -0.9669  0.5742
 2790UDC     C730686  11.222  17.897  19.748 -0.1865  0.2339 -0.7132
 2790UDC     C830687  11.068  17.896  19.741  0.4970 -1.7224  0.4786
 2790UDC     C930688  10.993  18.024  19.781  0.4273  0.3922 -0.0778
 2790UDC    C1030689  10.839  18.004  19.795 -0.1478 -0.0315 -0.0652
 2790UDC    C1130690  10.763  17.982  19.662  0.5777 -0.9442 -0.4757
 2791UDC     C130691   2.435   9.028   5.652  0.4327 -1.0045 -0.4227
 2791UDC     C230692   2.386   8.932   5.542  0.0778  0.4475  0.5126
 2791UDC     C330693   2.476   8.963   5.418 -0.7203  1.2202  0.2858
 2791UDC     C430694   2.624   8.935   5.439 -0.5104  0.0874 -0.4620
 2791UDC     C530695   2.710   8.956   5.311 -0.3905  1.3609 -0.6975
 2791UDC     C630696   2.835   8.880   5.326 -1.1094  0.7342  1.1268
 2791UDC     C730697   2.935   8.940   5.229 -0.0331 -0.9159 -1.7316
 2791UDC     C830698   3.087   8.896   5.240  1.4208 -0.6290  1.1967
 2791UDC     C930699   3.116   8.817   5.111  1.1207 -0.0015 -0.7417
 2791UDC    C1030700   3.092   8.879   4.977 -0.4000 -0.1591  0.1867
 2791UDC    C1130701   3.028   8.774   4.878  0.0591 -0.5152 -0.9436
 2792UDC     C130702   4.499  15.048   8.948  0.4136 -0.5406  0.0471
 2792UDC     C230703   4.501  15.202   8.985  0.0174  1.5711 -0.2356
 2792UDC     C330704   4.642  15.274   8.995  1.6541 -0.1000 -0.2812
 2792UDC     C430705   4.744  15.246   8.877  0.0702 -0.1562 -0.3135
 2792UDC     C530706   4.886  15.259   8.924 -0.7715 -0.2890  0.2196
 2792UDC     C630707   4.952  15.124   8.971 -0.1576  0.3297 -0.5386
 2792UDC     C730708   5.104  15.166   8.973 -0.7290 -0.0865  0.0925
 2792UDC     C830709   5.160  15.192   8.833  0.5062  0.5414  0.0538
 2792UDC     C930710   5.295  15.256   8.809 -0.4677  0.2478  0.3585
 2792UDC    C1030711   5.337  15.370   8.904  0.0878 -0.1471 -0.9661
 2792UDC    C1130712   5.485  15.418   8.898 -0.7673  0.0146  0.1848
 2793UDC     C130713   9.329  17.339  19.184 -0.0424  0.6322  0.5009
 2793UDC     C230714   9.280  17.322  19.043 -0.6395  0.6104  0.0502
 2793UDC     C330715   9.160  17.226  19.040  0.4435 -0.2619  0.3020
 2793UDC     C430716   9.121  17.173  18.903  0.1275  0.2201 -0.6757
 2793UDC     C530717   9.186  17.044  18.854  0.3148 -0.6259 -1.3216
 2793UDC     C630718   9.211  17.043  18.707 -0.6998 -0.4038  0.1331
 2793UDC     C730719   9.258  16.911  18.650  0.5849 -0.9466 -0.3969
 2793UDC     C830720   9.373  16.848  18.731  0.0363 -0.3259 -0.0103
 2793UDC     C930721   9.420  16.719  18.670  0.1141  0.1216  0.1983
 2793UDC    C1030722   9.547  16.630  18.708 -0.0301  0.0839 -0.1736
 2793UDC    C1130723   9.552  16.483  18.656  0.0796  0.3495  0.2597
 2794UDC     C130724   1.116   6.418  15.493 -0.2789  0.3608  0.3519
 2794UDC     C230725   1.060   6.291  15.422 -0.1335  0.6215 -0.2021
 2794UDC     C330726   1.163   6.176  15.386 -0.2538 -0.7364 -0.4272
 2794UDC     C430727   1.214   6.092  15.514  0.5079  0.3654  0.5622
 2794UDC     C530728   1.102   6.040  15.612 -0.4440 -0.1369 -1.0909
 2794UDC     C630729   1.163   5.929  15.702 -0.0709  0.8192 -0.2145
 2794UDC     C730730   1.055   5.843  15.764  0.5365  0.2484  0.8841
 2794UDC     C830731   1.130   5.717  15.809  0.0740  0.7096  0.5308
 2794UDC     C930732   1.197   5.743  15.943 -0.1226 -0.4101  0.4496
 2794UDC    C1030733   1.269   5.625  16.006  0.4086 -0.2600 -0.3446
 2794UDC    C1130734   1.390   5.557  15.941 -0.1163 -1.2433 -0.4556
 2795UDC     C130735   2.006  11.124   0.773 -0.3770 -0.5911 -0.4677
 2795UDC     C230736   1.881  11.051   0.740 -0.8917  0.3106 -0.0538
 2795UDC     C330737   1.778  11.067   0.854 -0.6496 -0.6250 -0.2361
 2795UDC     C430738   1.793  10.964   0.969 -0.0389  0.8737 -2.0972
 2795UDC     C530739   1.690  10.952   1.086  0.3291 -0.1772 -0.8012
 2795UDC     C630740   1.776  10.916   1.212 -1.0431 -0.2714 -0.3011
 2795UDC     C730741   1.706  10.885   1.349 -1.4322  0.6969  0.5298
 2795UDC     C830742   1.639  11.003   1.408 -0.1582  0.8271  0.3419
 2795UDC     C930743   1.744  11.089   1.492  0.6738  0.8608 -0.2501
 2795UDC    C1030744   1.718  11.067   1.640 -0.8792 -1.0973 -0.6969
 2795UDC    C1130745   1.586  11.116   1.718 -0.6760  0.2349 -0.1650
 2796UDC     C130746  18.770   2.657   8.149 -0.7962  0.6608  0.4642
 2796UDC     C230747  18.924   2.625   8.142 -0.1249 -1.3780  0.0550
 2796UDC     C330748  18.950   2.543   8.012 -0.3359 -0.4464 -0.4676
 2796UDC     C430749  19.087   2.559   7.951  0.5010  0.2617 -0.2188
 2796UDC     C530750  19.099   2.616   7.804  1.5523 -0.2714 -0.7165
 2796UDC     C630751  19.242   2.600   7.750 -0.1040 -0.5308  0.2443
 2796UDC     C730752  19.347   2.698   7.808  0.2193 -0.3863  0.5493
 2796UDC     C830753  19.483   2.644   7.775 -0.6479 -0.3107  0.1462
 2796UDC     C930754  19.483   2.524   7.867 -0.4710  1.0934 -1.0304
 2796UDC    C1030755  19.608   2.439   7.881  0.2025 -0.2356  0.5309
 2796UDC    C1130756  19.579   2.321   7.962 -0.9875  0.0757 -0.0530
 2797UDC     C130757   4.733   6.473  15.871 -0.2073 -0.0014  0.8993
 2797UDC     C230758   4.622   6.573  15.850 -0.0020  0.3281 -0.3941
 2797UDC     C330759   4.620   6.644  15.711  0.2906 -0.3293  0.1165
 2797UDC     C430760   4.539   6.563  15.604 -0.3902  0.8875  0.1449
 2797UDC     C530761   4.498   6.635  15.479  1.1898  0.2731 -0.9149
 2797UDC     C630762   4.621   6.653  15.389 -0.6573 -0.2129  0.1252
 2797UDC     C730763   4.614   6.728  15.255  0.4868 -0.9039  0.4185
 2797UDC     C830764   4.705   6.842  15.229 -0.7100  0.2001  0.1961
 2797UDC     C930765   4.701   6.935  15.354  0.3351 -0.7817  1.1952
 2797UDC    C1030766   4.761   7.072  15.319  0.4616 -0.2175  0.0571
 2797UDC    C1130767   4.833   7.119  15.442  0.9069  0.4144  0.6997
 2798UDC     C130768   3.120  11.033  17.713  0.3712 -0.3735  0.4186
 2798UDC     C230769   3.085  11.100  17.840  0.1857 -0.9300  0.0387
 2798UDC     C330770   2.967  11.009  17.904 -0.4509 -0.2448  0.0527
 2798UDC     C430771   2.849  10.992  17.815  0.5238 -0.3581 -0.6987
 2798UDC     C530772   2.725  10.913  17.833  0.0269  0.7243 -0.5398
 2798UDC     C630773   2.632  10.905  17.711  1.8196  0.9346 -0.1767
 2798UDC     C730774   2.666  10.775  17.631  0.1040 -0.8325  0.8316
 2798UDC     C830775   2.635  10.782  17.478 -0.3990 -0.4624 -0.1678
 2798UDC     C930776   2.684  10.655  17.407  0.8381 -0.3623  0.7091
 2798UDC    C1030777   2.631  10.512  17.445 -0.5235 -0.6763  0.2915
 2798UDC    C1130778   2.692  10.390  17.365 -0.1520 -0.0919  0.4362
 2799UDC     C130779   2.475   9.548   0.239 -0.0846  0.1758 -0.3438
 2799UDC     C230780   2.457   9.685   0.180 -0.0353  0.3794 -0.0827
 2799UDC     C330781   2.323   9.728   0.125 -0.6711 -0.5877  0.9291
 2799UDC     C430782   2.296   9.691  -0.017  1.0275  1.1365 -0.1995
 2799UDC     C530783   2.306   9.539  -0.042 -0.8662 -0.6775  0.3521
 2799UDC     C630784   2.262   9.486  -0.177 -0.5327  0.3064 -0.9336
 2799UDC     C730785   2.110   9.499  -0.171  0.0088 -0.7940  0.4784
 2799UDC     C830786   2.036   9.384  -0.107  0.1786 -0.6249  0.5324
 2799UDC     C930787   1.885   9.383  -0.141  0.7017 -0.2537 -1.6090
 2799UDC    C1030788   1.789   9.420  -0.019 -0.1249 -0.1685  0.4770
 2799UDC    C1130789   1.787   9.324   0.102  1.0760 -0.2718  0.6376
 2800UDC     C130790  13.604   5.953   3.210 -0.0336  0.1779 -0.1944
 2800UDC     C230791  13.758   5.964   3.247 -0.3735  0.1595 -0.0152
 2800UDC     C330792  13.841   6.086   3.206  0.5011 -1.2833 -0.4682
 2800UDC     C430793  13.923   6.135   3.321  0.6778 -0.8055  0.2170
 2800UDC     C530794  13.840   6.136   3.452 -0.8403 -1.0106 -0.2288
 2800UDC     C630795  13.868   6.249   3.559  0.5017  0.1890 -0.0053
 2800UDC     C730796  13.805   6.202   3.693  0.0381 -0.5586  1.0708
 2800UDC     C830797  13.908   6.141   3.785 -0.8363 -0.5402  0.1608
 2800UDC     C930798  13.836   6.046   3.873  1.7549 -0.4859 -0.9104
 2800UDC    C1030799  13.728   6.108   3.969 -0.4858  1.3040  1.1599
 2800UDC    C1130800  13.585   6.098   3.903 -0.0803 -0.3915 -0.6808
 2801UDC     C130801  18.190  12.183   2.763 -0.3293  0.2298 -0.1296
 2801UDC     C230802  18.292  12.214   2.646  0.3213  0.6550  1.1351
 2801UDC     C330803  18.270  12.370   2.614 -0.6295  0.4650 -0.0426
 2801UDC     C430804  18.129  12.396   2.578  0.1955 -0.1551  0.4603
 2801UDC     C530805  18.090  12.540   2.631 -1.1354  0.6795  0.1801
 2801UDC     C630806  17.965  12.585   2.575 -0.4541  0.8284  0.3369
 2801UDC     C730807  17.910  12.707   2.648 -0.6889 -0.7985 -0.3701
 2801UDC     C830808  17.792  12.783   2.598  0.9959 -0.1966 -0.9496
 2801UDC     C930809  17.802  12.827   2.456  0.2717  0.9405 -0.0178
 2801UDC    C1030810  17.899  12.945   2.444 -0.6085  0.3549  0.0060
 2801UDC    C1130811  17.845  13.062   2.525 -0.5498  0.8044  0.2950
 2802UDC     C130812  11.642   9.779  18.107 -0.2092 -1.1915 -1.3286
 2802UDC     C230813  11.705   9.894  18.199 -0.1342 -0.9885  0.0372
 2802UDC     C330814  11.802   9.990  18.133  0.0209 -0.3338 -0.1689
 2802UDC     C430815  11.923   9.915  18.078  0.2851 -0.1184  0.1387
 2802UDC     C530816  12.020  10.004  17.998  0.0024  0.9481 -0.0488
 2802UDC     C630817  12.081  10.097  18.105  0.2331 -0.4685  0.3195
 2802UDC     C730818  12.210  10.177  18.071  1.0465 -0.0794  0.2605
 2802UDC     C830819  12.333  10.109  18.132  0.6130  0.0914  0.0320
 2802UDC     C930820  12.320  10.090  18.287  0.8778 -0.8251 -0.0786
 2802UDC    C1030821  12.476  10.081  18.302  0.1545  0.2298 -0.3929
 2802UDC    C1130822  12.533  10.131  18.434 -0.2489 -0.1075 -0.2092
 2803UDC     C130823   6.175  13.195   6.015 -0.8495 -1.0749  0.0466
 2803UDC     C230824   6.311  13.155   6.082 -0.0386  0.0079 -0.3305
 2803UDC     C330825   6.306  13.167   6.235  0.4148 -0.6547  0.5623
 2803UDC     C430826   6.282  13.311   6.285  0.7121 -0.0140  0.5387
 2803UDC     C530827   6.391  13.404   6.235 -0.0032 -0.1159  0.6093
 2803UDC     C630828   6.342  13.542   6.189  0.7022  0.2444  0.7744
 2803UDC     C730829   6.220  13.586   6.266  0.4487 -1.9836 -0.1002
 2803UDC     C830830   6.273  13.635   6.401 -0.8806  0.6651 -1.0102
 2803UDC     C930831   6.179  13.679   6.510  1.5113  0.2128  0.3485
 2803UDC    C1030832   6.127  13.568   6.608 -0.8550 -0.4503  0.5653
 2803UDC    C1130833   6.248  13.528   6.691  0.3920 -0.8958  0.0526
 2804UDC     C130834   4.903   2.540  11.214 -0.5192  0.7161 -0.8292
 2804UDC     C230835   4.821   2.528  11.344 -0.2099  0.2209  0.5938
 2804UDC     C330836   4.893   2.548  11.477  0.6724 -0.1806  0.4041
 2804UDC     C430837   4.997   2.444  11.520  0.2465  1.4336 -0.0597
 2804UDC     C530838   5.067   2.468  11.659 -0.0961 -0.6746  0.6095
 2804UDC     C630839   4.968   2.496  11.777  0.2832 -0.8317  0.2472
 2804UDC     C730840   4.997   2.499  11.927  0.0965 -0.0251 -0.4401
 2804UDC     C830841   5.117   2.589  11.968 -0.6774  1.1479  0.4547
 2804UDC     C930842   5.141   2.711  11.884 -0.3258 -0.9882 -0.1256
 2804UDC    C1030843   5.191   2.842  11.944  0.5992 -0.2614 -0.1440
 2804UDC    C1130844   5.111   2.968  11.909  0.2507  0.5932  0.2183
 2805UDC     C130845   9.393  18.601  12.280  0.5637 -0.7552  0.1734
 2805UDC     C230846   9.463  18.625  12.144 -0.1482 -0.5065 -0.1285
 2805UDC     C330847   9.389  18.715  12.048 -1.2728 -0.7853 -0.4076
 2805UDC     C430848   9.491  18.795  11.972  0.6127 -0.2039  0.0158
 2805UDC     C530849   9.448  18.875  11.844 -0.9685 -0.5821 -0.2870
 2805UDC     C630850   9.556  18.975  11.797  0.5474  0.2775  0.7865
 2805UDC     C730851   9.700  18.925  11.794 -0.3607 -0.8979 -0.0090
 2805UDC     C830852   9.699  18.805  11.702  1.0546  0.0030 -0.4529
 2805UDC     C930853   9.834  18.753  11.655  0.6817 -0.8313 -0.6948
 2805UDC    C1030854   9.887  18.654  11.758  0.1492 -0.1167  0.9485
 2805UDC    C1130855   9.992  18.562  11.702 -1.3886 -1.0670  1.5368
 2806UDC     C130856  13.900   8.107   9.989 -1.2815  0.3560 -0.0248
 2806UDC     C230857  13.840   7.968   9.958  0.0884  1.0270 -0.7007
 2806UDC     C330858  13.911   7.865  10.049  0.7829  0.6251 -0.6270
 2806UDC     C430859  13.869   7.715  10.029  0.0593 -0.3892 -0.6273
 2806UDC     C530860  13.745   7.660  10.096  0.4649  0.8136  0.8854
 2806UDC     C630861  13.709   7.514  10.054 -0.6318  0.1223 -0.8659
 2806UDC     C730862  13.565   7.481  10.104  0.3874  1.3590 -0.7711
 2806UDC     C830863  13.519   7.339  10.057  0.2947  0.5386  0.6701
 2806UDC     C930864  13.430   7.263  10.150  0.1684  0.3481  0.2625
 2806UDC    C1030865  13.347   7.135  10.108 -0.2484  0.3213  1.2641
 2806UDC    C1130866  13.308   7.139   9.956  0.8971  0.0838  0.7007
 2807UDC     C130867   2.177   1.260   8.752  1.2529  0.1943 -0.0887
 2807UDC     C230868   2.036   1.202   8.725 -0.7609  0.5874  0.2268
 2807UDC     C330869   1.925   1.304   8.714 -0.1140 -1.0720  0.0980
 2807UDC     C430870   1.780   1.252   8.686  0.0177  1.0294  0.3008
 2807UDC     C530871   1.704   1.334   8.578 -0.1372  0.4379  0.5039
 2807UDC     C630872   1.560   1.288   8.559  0.6453 -0.8946  0.5269
 2807UDC     C730873   1.486   1.392   8.478  1.1626 -1.1420  0.6432
 2807UDC     C830874   1.431   1.507   8.556  0.2205 -1.3617  0.2954
 2807UDC     C930875   1.322   1.556   8.456  0.2887 -0.1956 -0.1574
 2807UDC    C1030876   1.200   1.617   8.528 -0.1941  0.1892  0.6795
 2807UDC    C1130877   1.147   1.523   8.627  0.6133  0.1982  0.8301
 2808UDC     C130878  12.045  10.184  16.910  0.2861 -0.4883  0.7675
 2808UDC     C230879  12.018  10.315  16.988  0.4274 -0.6998  0.2984
 2808UDC     C330880  11.983  10.435  16.888 -1.5494  0.4065  0.0221
 2808UDC     C430881  11.951  10.571  16.953 -0.3269  0.4524  0.1321
 2808UDC     C530882  12.054  10.641  17.039 -0.5543  0.4936 -0.0662
 2808UDC     C630883  12.065  10.603  17.193  0.0735 -0.2261  0.0848
 2808UDC     C730884  12.188  10.670  17.258  0.6227  0.8342 -0.7925
 2808UDC     C830885  12.227  10.606  17.393 -0.0895  0.5604 -0.7186
 2808UDC     C930886  12.170  10.630  17.535 -0.5326  1.7545  0.8861
 2808UDC    C1030887  12.204  10.514  17.622 -0.7628 -0.7135 -0.2292
 2808UDC    C1130888  12.190  10.381  17.547  0.1640 -0.3352 -0.4674
 2809UDC     C130889   0.470  17.585  13.976  0.1205 -0.8224 -0.2160
 2809UDC     C230890   0.451  17.731  13.920 -0.3047 -0.2844 -0.6698
 2809UDC     C330891   0.601  17.774  13.920  0.2495 -0.3638  1.0603
 2809UDC     C430892   0.645  17.919  13.908  0.2340  0.6722 -0.1774
 2809UDC     C530893   0.762  17.969  13.986 -1.6659  1.2131  0.3984
 2809UDC     C630894   0.733  17.992  14.139 -0.2626 -0.7369 -0.9665
 2809UDC     C730895   0.753  17.853  14.212  0.0476 -0.8236 -0.5440
 2809UDC     C830896   0.749  17.866  14.366 -0.7859 -0.5146  0.7011
 2809UDC     C930897   0.612  17.929  14.408  0.7716  0.0083  1.2627
 2809UDC    C1030898   0.619  18.029  14.522  0.1840 -0.6496 -0.3163
 2809UDC    C1130899   0.700  17.969  14.644  0.4179  0.1112  0.7216
 2810UDC     C130900  15.080  16.852   3.368  0.6308 -0.6589 -0.4780
 2810UDC     C230901  15.006  16.935   3.260  0.2103  1.1941  0.2401
 2810UDC     C330902  14.936  16.858   3.146  0.4935  0.2929  0.0121
 2810UDC     C430903  15.027  16.789   3.041  0.4827 -0.4032  0.4971
 2810UDC     C530904  15.049  16.635   3.056 -0.5349  0.4644  0.0566
 2810UDC     C630905  14.930  16.558   2.994  0.5557  0.3256  0.7662
 2810UDC     C730906  14.789  16.558   3.054 -0.0009  0.5026 -0.8564
 2810UDC     C830907  14.667  16.488   2.992  0.2796 -0.1545  0.2412
 2810UDC     C930908  14.670  16.336   3.019 -0.6364  1.0732  0.3509
 2810UDC    C1030909  14.570  16.243   2.939 -0.6980  0.5659 -0.3927
 2810UDC    C1130910  14.558  16.088   2.965 -0.6889  0.2646 -0.1514
 2811UDC     C130911   0.401   0.949  11.018 -0.6766  0.9178  0.4416
 2811UDC     C230912   0.280   1.009  10.960 -0.1652 -0.0784 -0.5682
 2811UDC     C330913   0.279   0.966  10.811 -1.1801  0.3015 -0.8549
 2811UDC     C430914   0.387   1.013  10.715 -0.2270  0.4596  0.6350
 2811UDC     C530915   0.362   0.953  10.573  0.2848  0.2342  0.2724
 2811UDC     C630916   0.239   1.014  10.504 -0.5864  0.6226  0.5205
 2811UDC     C730917   0.239   0.966  10.360 -0.5136  0.5087  0.1995
 2811UDC     C830918   0.126   1.023  10.291  0.7371  0.1023 -0.1454
 2811UDC     C930919   0.143   0.986  10.146 -0.7273  1.1565  0.6312
 2811UDC    C1030920   0.023   1.035  10.063  0.5970 -0.1525 -0.2706
 2811UDC    C1130921   0.031   1.003   9.915 -0.1762 -0.2136 -0.4919
 2812UDC     C130922  19.272  18.713   3.675  0.0641  1.0386 -0.3025
 2812UDC     C230923  19.387  18.616   3.640 -0.1591 -0.7224 -0.6652
 2812UDC     C330924  19.369  18.470   3.695  0.1068  0.1249  0.9440
 2812UDC     C430925  19.457  18.352   3.657 -0.0708 -0.2539  0.4469
 2812UDC     C530926  19.457  18.312   3.505 -0.6948 -0.6289  0.8850
 2812UDC     C630927  19.471  18.166   3.460 -1.0894 -1.2972 -0.2183
 2812UDC     C730928  19.411  18.128   3.326 -0.1628 -0.7759  0.7385
 2812UDC     C830929  19.309  18.021   3.319 -0.5168  0.0134  0.1016
 2812UDC     C930930  19.190  18.063   3.402  0.2530 -0.3682 -0.0972
 2812UDC    C1030931  19.096  17.948   3.405 -0.4879  0.2650  0.6782
 2812UDC    C1130932  18.961  17.981   3.469 -0.6408  0.2597  0.0888
 2813UDC     C130933   1.418   4.574   6.746 -0.0092  0.4987 -0.4505
 2813UDC     C230934   1.394   4.529   6.603  0.2287 -0.8926  0.3866
 2813UDC     C330935   1.533   4.498   6.553 -0.0634  0.6254 -0.7078
 2813UDC     C430936   1.615   4.622   6.513 -0.0526  0.2079  0.0747
 2813UDC     C530937   1.763   4.592   6.483  0.8045  1.0141 -0.3225
 2813UDC     C630938   1.800   4.449   6.429  0.1320  0.1647 -0.0360
 2813UDC     C730939   1.953   4.440   6.414  1.0114  0.1694 -0.1852
 2813UDC     C830940   2.007   4.533   6.308 -0.6466  0.7032 -0.5287
 2813UDC     C930941   2.140   4.476   6.274  0.3662  0.0713  0.3008
 2813UDC    C1030942   2.216   4.590   6.215 -0.7601 -0.4203 -0.1617
 2813UDC    C1130943   2.149   4.647   6.085 -0.3137  1.3110  0.0911
 2814UDC     C130944   8.041  13.685  14.396 -1.1303 -0.0475 -0.1784
 2814UDC     C230945   7.969  13.629  14.275  0.7243 -0.3619  1.0036
 2814UDC     C330946   7.855  13.540  14.306 -0.1563  0.1032 -0.0687
 2814UDC     C430947   7.746  13.488  14.209  0.5524 -0.2789 -0.1300
 2814UDC     C530948   7.610  13.440  14.265 -0.4378  1.6087  0.4110
 2814UDC     C630949   7.549  13.525  14.373  0.1300 -0.7258 -0.7297
 2814UDC     C730950   7.569  13.673  14.366  0.0831  0.0823 -0.6566
 2814UDC     C830951   7.445  13.753  14.419  0.2609  1.3236 -0.0828
 2814UDC     C930952   7.459  13.907  14.420  0.5609 -0.6553  0.0562
 2814UDC    C1030953   7.598  13.947  14.465 -0.0520 -0.0470 -0.2164
 2814UDC    C1130954   7.612  14.103  14.478  0.5047  1.1800 -1.5598
 2815UDC     C130955  16.890   7.235  10.022  0.4802 -0.2462  1.0146
 2815UDC     C230956  16.862   7.197   9.876 -0.7748 -0.6403  0.3265
 2815UDC     C330957  16.714   7.200   9.824 -0.0599 -0.0199 -0.4065
 2815UDC     C430958  16.671   7.337   9.766  0.5361  0.4705  0.0356
 2815UDC     C530959  16.527   7.332   9.700  0.8219 -0.3214  0.2554
 2815UDC     C630960  16.477   7.460   9.635 -0.0052  0.0864  1.1432
 2815UDC     C730961  16.327   7.426   9.584  0.7039 -0.4954 -1.3008
 2815UDC     C830962  16.239   7.451   9.707 -0.2836  0.1873 -0.0620
 2815UDC     C930963  16.092   7.395   9.690 -0.1926 -0.3488  0.6880
 2815UDC    C1030964  16.089   7.240   9.684  0.3724 -0.3929  0.8654
 2815UDC    C1130965  15.976   7.175   9.596 -0.3386 -0.7202 -1.1652
 2816UDC     C130966  19.922   2.770   7.944 -0.4783 -0.9101 -0.0459
 2816UDC     C230967  19.969   2.849   7.817  0.4192  1.4199  0.0031
 2816UDC     C330968  19.930   3.000   7.819  0.1210 -1.2045  0.2110
 2816UDC     C430969  20.003   3.074   7.696  0.9073 -1.0319  0.3224
 2816UDC     C530970  19.955   3.213   7.657 -0.8515 -0.2230  0.1847
 2816UDC     C630971  20.075   3.242   7.561  0.9774 -0.2052  0.4338
 2816UDC     C730972  20.057   3.361   7.461  0.0090  0.5112 -1.1071
 2816UDC     C830973  20.199   3.400   7.422 -0.2150  0.2360  0.2740
 2816UDC     C930974  20.264   3.502   7.517 -0.3326  0.6973  0.4609
 2816UDC    C1030975  20.411   3.520   7.480  0.0212 -0.0048  0.8854
 2816UDC    C1130976  20.441   3.653   7.562 -0.3255 -0.1774  1.4103
 2817UDC     C130977  19.788   9.062  17.867  0.4687 -0.4512  0.4575
 2817UDC     C230978  19.781   8.983  17.734 -0.3025  0.6809 -0.0441
 2817UDC     C330979  19.915   8.929  17.683 -0.8038  0.5582  0.1801
 2817UDC     C430980  19.982   9.033  17.590 -0.8894  0.9131  1.0264
 2817UDC     C530981  19.999   8.969  17.451  0.3813  0.4130  0.0475
 2817UDC     C630982  20.081   9.040  17.342  0.1419 -0.4353  1.1943
 2817UDC     C730983  20.005   9.144  17.257 -0.3113  0.1966 -0.4461
 2817UDC     C830984  19.874   9.079  17.195 -0.5606  0.4312  0.9019
 2817UDC     C930985  19.806   9.151  17.077 -0.2253  0.5277  0.0518
 2817UDC    C1030986  19.699   9.056  17.014 -0.4204 -0.9452 -0.4192
 2817UDC    C1130987  19.570   9.104  16.945 -0.2234  0.1898 -1.0541
 2818UDC     C130988   5.181   8.920   9.716  1.1558 -0.4510 -0.5221
 2818UDC     C230989   5.146   8.777   9.749 -0.6162  0.4121  0.0248
 2818UDC     C330990   5.008   8.744   9.811  0.2114 -0.1322 -0.5099
 2818UDC     C430991   4.983   8.596   9.790 -0.2535  0.3748  0.5556
 2818UDC     C530992   4.868   8.526   9.861 -0.1303  1.0490  0.5527
 2818UDC     C630993   4.894   8.516  10.018 -0.6901 -0.1615  0.5970
 2818UDC     C730994   4.809   8.410  10.082 -0.2034  0.7094  0.0277
 2818UDC     C830995   4.873   8.276  10.121 -0.0199 -1.0914 -0.9906
 2818UDC     C930996   4.986   8.320  10.209  0.1992  0.3049 -0.3792
 2818UDC    C1030997   5.045   8.212  10.297 -0.2974 -1.8557  0.4175
 2818UDC    C1130998   4.952   8.174  10.412  0.1713  0.0224 -0.0634
 2819UDC     C130999   7.780  18.479   1.147  0.1862  1.4149  0.4927
 2819UDC     C231000   7.846  18.441   1.011  0.2647  0.5758 -0.0377
 2819UDC     C331001   7.999  18.474   0.994  0.2107  0.8466 -0.1584
 2819UDC     C431002   8.102  18.357   0.995 -1.0644 -0.2878 -0.5044
 2819UDC     C531003   8.101  18.262   1.115  0.6227 -0.7353 -0.2132
 2819UDC     C631004   8.143  18.319   1.247 -0.2689  0.6517 -0.3749
 2819UDC     C731005   8.154  18.213   1.354  0.0465  0.9449  0.1597
 2819UDC     C831006   8.244  18.240   1.480  0.0722  0.2787  0.0633
 2819UDC     C931007   8.208  18.148   1.603 -0.8283  0.3973  0.1902
 2819UDC    C1031008   8.296  18.165   1.734 -1.3182 -0.3433  0.6433
 2819UDC    C1131009   8.249  18.300   1.787  0.9183 -0.6439 -0.4390
 2820UDC     C131010   6.819   3.426  15.532 -0.0861  0.2929 -0.8916
 2820UDC     C231011   6.670   3.441  15.483  0.5036 -0.5535 -0.1112
 2820UDC     C331012   6.620   3.583  15.492 -1.1712 -0.7427  0.3364
 2820UDC     C431013   6.694   3.677  15.398 -0.2478  0.5831 -0.4519
 2820UDC     C531014   6.648   3.813  15.439 -0.3789 -0.2231 -0.9035
 2820UDC     C631015   6.737   3.913  15.375 -0.2220  0.0487 -0.1829
 2820UDC     C731016   6.724   4.061  15.427 -0.2878 -1.1651  0.2400
 2820UDC     C831017   6.835   4.147  15.364 -0.0395 -0.0757  0.3253
 2820UDC     C931018   6.864   4.287  15.430 -1.1755 -0.6865  0.2386
 2820UDC    C1031019   6.978   4.366  15.363  0.1262 -0.2668 -0.0493
 2820UDC    C1131020   6.977   4.520  15.394  1.4935 -0.3319  2.1384
 2821UDC     C131021   4.650  11.047  17.176 -0.4269 -0.1646 -0.2319
 2821UDC     C231022   4.543  11.159  17.146 -0.1488 -0.1821 -0.2891
 2821UDC     C331023   4.603  11.299  17.143 -0.6294 -0.2631  0.5106
 2821UDC     C431024   4.677  11.368  17.261  0.7401 -0.9788  0.2622
 2821UDC     C531025   4.776  11.477  17.230 -1.1762 -0.1958  0.8385
 2821UDC     C631026   4.834  11.560  17.343  0.3557 -0.0038  0.2669
 2821UDC     C731027   4.973  11.509  17.372 -0.8227 -0.0835  0.1622
 2821UDC     C831028   5.066  11.465  17.251  0.8336 -0.1282 -0.3931
 2821UDC     C931029   5.196  11.388  17.288  0.3870 -1.7502 -0.1009
 2821UDC    C1031030   5.250  11.353  17.142  0.5797 -0.3383  0.3446
 2821UDC    C1131031   5.156  11.266  17.054 -0.5517  0.0465  0.2353
 2822UDC     C131032   1.344   2.617  12.088  0.1181 -1.0413  0.2421
 2822UDC     C231033   1.349   2.583  11.939 -0.2488 -0.6434  1.0169
 2822UDC     C331034   1.406   2.689  11.842 -0.0192 -0.9042 -0.8488
 2822UDC     C431035   1.404   2.664  11.690  0.7391 -0.9665 -0.2831
 2822UDC     C531036   1.255   2.680  11.648  0.1334 -0.1157 -0.1643
 2822UDC     C631037   1.212   2.821  11.627 -0.0776  0.1945  0.1340
 2822UDC     C731038   1.063   2.816  11.583 -0.3221 -0.2289 -0.4171
 2822UDC     C831039   0.980   2.947  11.584  0.4452 -0.0688  0.0965
 2822UDC     C931040   0.962   3.018  11.719  1.2293 -0.7759 -0.1437
 2822UDC    C1031041   0.835   2.970  11.785  0.8638 -0.7800  0.6753
 2822UDC    C1131042   0.750   3.051  11.876  0.3981 -0.2133 -0.2013
 2823UDC     C131043   1.276   0.434  17.165 -0.5175  1.1575  0.7607
 2823UDC     C231044   1.302   0.277  17.173 -1.5170 -0.3380 -0.5339
 2823UDC     C331045   1.226   0.222  17.294  0.8989  0.8072 -0.9569
 2823UDC     C431046   1.282   0.236  17.435 -0.5088  0.3115  0.2952
 2823UDC     C531047   1.252   0.367  17.511  0.7685 -0.0504  0.0009
 2823UDC     C631048   1.347   0.415  17.620  0.4571 -0.1493 -0.0047
 2823UDC     C731049   1.343   0.571  17.648  0.4826 -0.0302  1.5582
 2823UDC     C831050   1.458   0.647  17.726  0.3528  0.5990  0.1890
 2823UDC     C931051   1.429   0.792  17.787  0.0308  0.7853 -0.2096
 2823UDC    C1031052   1.532   0.837  17.890  0.1789  0.6247  0.0412
 2823UDC    C1131053   1.479   0.798  18.037 -0.0180 -0.2677 -0.0811
 2824UDC     C131054   6.267  17.594  19.171  0.7728  0.1592  0.1309
 2824UDC     C231055   6.308  17.714  19.084  0.6877 -0.4756  0.0019
 2824UDC     C331056   6.348  17.853  19.143 -0.1440  0.4761 -0.1856
 2824UDC     C431057   6.241  17.961  19.119 -0.1860  1.1193  0.4441
 2824UDC     C531058   6.219  18.074  19.214  0.8623  0.1540 -0.0378
 2824UDC     C631059   6.177  18.039  19.357 -0.2229  0.5141 -0.4626
 2824UDC     C731060   6.086  18.144  19.440  1.0124  0.6246  0.3368
 2824UDC     C831061   6.159  18.244  19.526  0.3786 -0.2527 -0.8189
 2824UDC     C931062   6.178  18.181  19.668  0.1056 -0.9405  0.4296
 2824UDC    C1031063   6.268  18.261  19.769  0.2710 -0.6042  1.4090
 2824UDC    C1131064   6.412  18.289  19.729 -0.5193  0.3036  0.6187
 2825UDC     C131065   8.873   9.395  18.762 -0.0075 -1.4785  0.7623
 2825UDC     C231066   9.015   9.409  18.708 -0.9383  0.6320 -0.0588
 2825UDC     C331067   9.098   9.495  18.808 -0.0350 -0.7700 -0.1587
 2825UDC     C431068   9.250   9.450  18.807  1.1298 -0.7819 -0.9806
 2825UDC     C531069   9.315   9.409  18.679  1.2243  0.3863 -0.2358
 2825UDC     C631070   9.457   9.359  18.693 -0.4370  0.0440  0.3281
 2825UDC     C731071   9.570   9.456  18.737  0.3403  0.3033  0.7373
 2825UDC     C831072   9.705   9.395  18.718 -0.2473  0.0880 -0.6073
 2825UDC     C931073   9.811   9.489  18.672  0.4224  0.0411 -0.2329
 2825UDC    C1031074   9.884   9.557  18.791  0.1185  0.4954 -0.4413
 2825UDC    C1131075   9.953   9.684  18.745 -0.6626 -0.4582  0.1451
 2826UDC     C131076  12.104   8.029  18.355 -0.0382  0.3413  0.1541
 2826UDC     C231077  12.183   8.155  18.373 -0.8408 -0.3020 -0.5056
 2826UDC     C331078  12.190   8.233  18.243  1.2402  0.0006  0.3610
 2826UDC     C431079  12.313   8.329  18.203 -0.1218 -0.0385  0.4840
 2826UDC     C531080  12.279   8.414  18.077 -0.0258  0.7418 -0.0849
 2826UDC     C631081  12.237   8.324  17.956 -0.6947 -0.8779 -0.2645
 2826UDC     C731082  12.363   8.252  17.905 -0.4476 -0.2994  0.1723
 2826UDC     C831083  12.331   8.177  17.776 -0.6584 -0.1438  0.6848
 2826UDC     C931084  12.444   8.177  17.661  0.4310 -0.1802  0.0643
 2826UDC    C1031085  12.555   8.076  17.692 -0.3806 -0.9799  0.9108
 2826UDC    C1131086  12.526   7.928  17.730  0.2262  0.8564  0.1115
 2827UDC     C131087  19.536  17.848  17.232 -0.2523  0.1652  0.5469
 2827UDC     C231088  19.511  17.697  17.244  0.8254  0.5603  0.7366
 2827UDC     C331089  19.587  17.626  17.129  0.1262  0.7784 -0.4443
 2827UDC     C431090  19.512  17.495  17.096  0.4116 -0.3521  1.6006
 2827UDC     C531091  19.600  17.375  17.083  0.1777  0.1045 -0.6237
 2827UDC     C631092  19.515  17.261  17.024  1.2554 -0.2715 -0.7510
 2827UDC     C731093  19.549  17.112  17.052  1.7484 -0.2989 -0.4580
 2827UDC     C831094  19.477  17.056  17.176  0.5983 -0.5109 -0.9603
 2827UDC     C931095  19.486  16.903  17.192  1.2996 -0.2073 -0.5961
 2827UDC    C1031096  19.510  16.870  17.344 -0.0332 -0.5689  0.5067
 2827UDC    C1131097  19.411  16.944  17.435  0.2830  0.8312 -0.0687
 2828UDC     C131098  12.482  18.656  18.641 -0.4147  0.3894  0.0850
 2828UDC     C231099  12.553  18.711  18.767 -0.3299  1.1307  1.0463
 2828UDC     C331100  12.684  18.795  18.741  1.3714 -0.1331  0.0645
 2828UDC     C431101  12.768  18.750  18.620 -0.4264 -0.2782  0.2739
 2828UDC     C531102  12.901  18.820  18.596 -0.3700 -0.4695 -0.6964
 2828UDC     C631103  12.998  18.825  18.721  0.4450 -0.2890  0.8537
 2828UDC     C731104  13.091  18.945  18.730 -0.1345 -0.6677 -0.1666
 2828UDC     C831105  13.193  18.962  18.844  0.7318 -0.3751 -1.1630
 2828UDC     C931106  13.349  18.959  18.815 -0.0808 -0.5019 -0.9616
 2828UDC    C1031107  13.427  19.011  18.934 -0.5830 -0.2027  0.7772
 2828UDC    C1131108  13.577  19.038  18.901  0.7753  0.0989  0.2631
 2829UDC     C131109   5.545  10.478  15.368 -0.0650 -0.4171 -0.0305
 2829UDC     C231110   5.520  10.557  15.234  0.5941  0.6147  0.3050
 2829UDC     C331111   5.632  10.662  15.220 -1.0246 -0.8742  0.3588
 2829UDC     C431112   5.639  10.749  15.091 -0.2417  0.3962 -1.0677
 2829UDC     C531113   5.609  10.672  14.968  1.0244  0.7224 -0.9817
 2829UDC     C631114   5.627  10.745  14.837  0.4821  0.2476 -0.2906
 2829UDC     C731115   5.775  10.771  14.810 -0.4109  0.0642 -0.2825
 2829UDC     C831116   5.790  10.853  14.678  0.0483  0.2878 -0.7669
 2829UDC     C931117   5.928  10.912  14.684  0.4047  0.3222 -0.4579
 2829UDC    C1031118   6.049  10.817  14.678 -0.3028 -0.4434 -0.0556
 2829UDC    C1131119   6.189  10.879  14.702  0.5849  1.0533  0.7337
 2830UDC     C131120  17.739   0.788   3.297  0.1080 -0.2703 -0.2846
 2830UDC     C231121  17.760   0.848   3.440  0.2197 -0.1511  0.2096
 2830UDC     C331122  17.667   0.802   3.554 -1.0939  0.3383  0.9208
 2830UDC     C431123  17.516   0.812   3.539  0.5831 -0.0730 -0.5938
 2830UDC     C531124  17.445   0.701   3.628 -1.2767 -0.9758  0.3830
 2830UDC     C631125  17.294   0.680   3.614  0.8279 -0.2839  0.5142
 2830UDC     C731126  17.194   0.761   3.704  1.0171 -0.1380 -0.1681
 2830UDC     C831127  17.163   0.710   3.849 -0.1499  0.0788  0.2313
 2830UDC     C931128  17.289   0.673   3.926  0.6271 -0.7403 -0.8109
 2830UDC    C1031129  17.260   0.636   4.074 -0.3946 -0.3948  0.9012
 2830UDC    C1131130  17.165   0.744   4.145  0.0910  1.1015 -0.3787
 2831UDC     C131131  15.028   6.694   4.192  0.0726  0.3777 -0.4338
 2831UDC     C231132  14.966   6.611   4.070  0.2746  1.2865 -1.0548
 2831UDC     C331133  14.937   6.465   4.113  1.0515 -0.4606 -0.3718
 2831UDC     C431134  14.879   6.368   4.007 -0.0318 -0.2605 -0.0187
 2831UDC     C531135  14.984   6.269   3.958  0.5710  0.2604  0.6455
 2831UDC     C631136  14.919   6.190   3.844 -0.3338  0.6502 -0.6789
 2831UDC     C731137  14.979   6.044   3.828  0.2354 -1.1093 -0.4181
 2831UDC     C831138  14.953   5.972   3.698 -0.8988 -0.3740  0.2086
 2831UDC     C931139  15.053   5.857   3.681  0.4792 -0.5532  1.1324
 2831UDC    C1031140  14.970   5.724   3.692 -0.4716  0.6345 -0.7502
 2831UDC    C1131141  14.869   5.656   3.601  0.3082 -0.0166  0.2240
 2832UDC     C131142   9.489  10.199   0.272 -0.2048  0.2617 -0.6048
 2832UDC     C231143   9.595  10.094   0.302 -0.1064  1.9931 -0.5979
 2832UDC     C331144   9.717  10.098   0.216  0.3615 -0.8981  0.0218
 2832UDC     C431145   9.807  10.220   0.222  0.7745 -0.0275 -0.0540
 2832UDC     C531146   9.869  10.236   0.360 -0.3776 -0.5880 -1.6755
 2832UDC     C631147  10.007  10.314   0.381  0.8610  0.1407 -0.2646
 2832UDC     C731148  10.049  10.337   0.529 -0.2223  0.4062  0.1107
 2832UDC     C831149  10.185  10.274   0.550 -0.3913 -1.0412  0.6343
 2832UDC     C931150  10.225  10.327   0.690  0.2615 -0.6169  0.2301
 2832UDC    C1031151  10.324  10.237   0.770  0.4505 -0.7112 -0.8815
 2832UDC    C1131152  10.458  10.215   0.712 -0.5111 -0.7758 -1.3321
 2833UDC     C131153   8.389  13.311   5.844  0.6972  1.2220 -0.1164
 2833UDC     C231154   8.317  13.420   5.769 -0.0521 -0.5864  1.0234
 2833UDC     C331155   8.225  13.362   5.659  0.3353  0.2773  0.6189
 2833UDC     C431156   8.131  13.240   5.702 -0.4058 -0.4682 -0.7227
 2833UDC     C531157   8.002  13.266   5.633 -0.1757 -0.2073 -0.0928
 2833UDC     C631158   7.924  13.131   5.597 -0.7227 -0.1215 -0.2902
 2833UDC     C731159   7.951  13.074   5.457  0.1018  1.4732  0.2667
 2833UDC     C831160   7.885  12.939   5.440  0.3914  0.8583  0.1275
 2833UDC     C931161   7.898  12.874   5.299 -1.1130 -1.0376 -0.3000
 2833UDC    C1031162   7.834  12.733   5.286  0.4484 -0.1384 -0.1091
 2833UDC    C1131163   7.873  12.644   5.168 -0.6118  0.8124 -0.7352
 2834UDC     C131164   1.012  14.909  19.445 -0.5862  0.5472 -0.4732
 2834UDC     C231165   1.091  14.827  19.545 -0.2472 -0.6505 -0.8962
 2834UDC     C331166   0.975  14.728  19.582  1.5018  0.0777  0.6756
 2834UDC     C431167   0.914  14.772  19.719 -0.3920 -0.0556 -1.1454
 2834UDC     C531168   0.809  14.691  19.793 -0.7106  0.4621 -0.4481
 2834UDC     C631169   0.815  14.735  19.940  0.2583  0.7661  0.4591
 2834UDC     C731170   0.698  14.666  20.013 -0.5380 -0.1699  1.0813
 2834UDC     C831171   0.648  14.737  20.131 -0.8396  0.3112 -1.3796
 2834UDC     C931172   0.522  14.651  20.168  0.4706 -1.0428 -0.5725
 2834UDC    C1031173   0.414  14.654  20.056  0.0630  0.5771  0.8170
 2834UDC    C1131174   0.281  14.631  20.122 -0.2814 -0.0882 -2.2067
 2835UDC     C131175  19.338   1.255   5.593 -0.2357  0.3371  0.2190
 2835UDC     C231176  19.297   1.191   5.722 -1.1541 -0.7108  0.2617
 2835UDC     C331177  19.296   1.289   5.845 -0.8515 -0.2071  0.8385
 2835UDC     C431178  19.155   1.323   5.896  0.0190 -0.3663  0.0646
 2835UDC     C531179  19.084   1.192   5.928  0.4008 -0.3523 -0.4521
 2835UDC     C631180  19.159   1.107   6.041 -0.4020  1.1154 -0.9245
 2835UDC     C731181  19.157   1.173   6.174 -1.0834  0.5624 -0.2853
 2835UDC     C831182  19.204   1.089   6.292 -0.5199  0.4510  0.8486
 2835UDC     C931183  19.219   1.179   6.417 -0.3218  0.7274  0.7324
 2835UDC    C1031184  19.287   1.121   6.537  0.3619 -0.3269  1.3015
 2835UDC    C1131185  19.230   1.167   6.670 -0.0704  0.4718 -0.2645
 2836UDC     C131186  15.035   0.042  10.366 -0.4559 -0.5254  0.7019
 2836UDC     C231187  15.147   0.075  10.465  0.3433 -0.1777  0.0687
 2836UDC     C331188  15.089   0.074  10.604 -0.0662 -0.2063  0.3992
 2836UDC     C431189  15.175   0.112  10.725 -0.6330  0.8201 -0.2713
 2836UDC     C531190  15.217   0.261  10.751  0.8462  0.1997 -0.4094
 2836UDC     C631191  15.346   0.287  10.838  0.0062 -0.1387 -0.5761
 2836UDC     C731192  15.392   0.437  10.835 -0.2486 -0.0480 -0.8139
 2836UDC     C831193  15.516   0.480  10.915 -0.0212  0.7430 -0.4010
 2836UDC     C931194  15.532   0.628  10.943 -0.1590 -0.0835 -0.3987
 2836UDC    C1031195  15.634   0.683  11.041 -0.2370  0.4377 -0.0411
 2836UDC    C1131196  15.770   0.641  10.975 -0.3220  0.3341 -0.6487
 2837UDC     C131197   0.322   1.844   9.044  0.0416  0.0979  0.7878
 2837UDC     C231198   0.306   1.930   8.916  0.1052  1.0067  0.8272
 2837UDC     C331199   0.198   1.870   8.821 -0.2473 -0.9455  1.3264
 2837UDC     C431200   0.170   1.944   8.688 -0.2262  0.1734 -0.6542
 2837UDC     C531201   0.296   1.971   8.601  0.2587  0.0450  0.0733
 2837UDC     C631202   0.245   2.066   8.489 -1.0444 -0.2944  0.6665
 2837UDC     C731203   0.183   1.996   8.364  0.1997 -0.3738 -0.4624
 2837UDC     C831204   0.279   1.938   8.263 -0.2256 -0.3010 -0.3707
 2837UDC     C931205   0.220   1.890   8.128  0.7003 -1.3424  0.1550
 2837UDC    C1031206   0.310   1.843   8.014 -0.4968 -0.1606 -0.5659
 2837UDC    C1131207   0.219   1.805   7.890 -0.2011  0.3696 -1.2804
 2838UDC     C131208   8.853  12.299   9.961  0.0190 -0.6091  0.5844
 2838UDC     C231209   8.815  12.421  10.047 -1.2299 -0.3946 -0.1116
 2838UDC     C331210   8.721  12.412  10.168  0.1386  0.6430  0.0052
 2838UDC     C431211   8.788  12.354  10.299  0.8613  0.2454 -0.4008
 2838UDC     C531212   8.709  12.246  10.384 -0.3690  0.1608 -1.1449
 2838UDC     C631213   8.608  12.300  10.490  0.6021  0.8925  0.3093
 2838UDC     C731214   8.665  12.340  10.620  0.2394  0.3579  0.7369
 2838UDC     C831215   8.594  12.471  10.662  0.2513  0.2226  1.0450
 2838UDC     C931216   8.575  12.573  10.540  1.2297  0.5516 -0.6315
 2838UDC    C1031217   8.473  12.687  10.565  0.3135  0.0744  0.4727
 2838UDC    C1131218   8.469  12.783  10.451 -0.8619  0.0579 -1.0202
 2839UDC     C131219   8.845  14.936  14.258  0.0137 -0.8992 -0.4210
 2839UDC     C231220   8.721  14.957  14.169  0.6300  0.4785 -0.2819
 2839UDC     C331221   8.737  14.895  14.020 -0.6220 -0.0676  0.3035
 2839UDC     C431222   8.599  14.861  13.959  0.3846  0.0626 -0.7358
 2839UDC     C531223   8.548  14.729  14.005  0.0818 -0.6050 -0.1090
 2839UDC     C631224   8.489  14.715  14.147 -0.0272  0.6682 -0.6222
 2839UDC     C731225   8.341  14.748  14.151  1.3249  0.4756  0.4178
 2839UDC     C831226   8.275  14.738  14.292  0.6307  0.6435 -0.1070
 2839UDC     C931227   8.272  14.850  14.390  0.4975 -0.0905  0.1687
 2839UDC    C1031228   8.192  14.973  14.349  0.3111  1.1209  1.1892
 2839UDC    C1131229   8.037  14.951  14.365  0.0336  0.1954 -0.3555
 2840UDC     C131230  17.954  12.119  15.987 -0.3126 -0.7443  0.5857
 2840UDC     C231231  18.037  12.251  15.990  0.6122  0.1973  0.9815
 2840UDC     C331232  17.947  12.366  16.020 -1.0441  1.3090 -0.9489
 2840UDC     C431233  18.033  12.494  16.024 -0.4067  0.0403 -0.4259
 2840UDC     C531234  18.158  12.509  16.116 -1.5944 -0.8154 -0.4294
 2840UDC     C631235  18.246  12.632  16.083  0.2825 -0.3329 -0.0253
 2840UDC     C731236  18.285  12.732  16.186 -0.7745  0.3688 -0.7270
 2840UDC     C831237  18.398  12.695  16.289  0.1675  0.1384  0.3259
 2840UDC     C931238  18.510  12.807  16.294  0.3917  0.1743 -0.2986
 2840UDC    C1031239  18.573  12.816  16.156 -0.5822  0.2372  1.8402
 2840UDC    C1131240  18.717  12.887  16.150  1.3841 -0.5218 -1.0651
 2841UDC     C131241  10.384  12.175   7.589 -0.9891  0.4963 -0.1133
 2841UDC     C231242  10.347  12.082   7.480 -0.6699  0.8286  0.8034
 2841UDC     C331243  10.263  11.964   7.529  0.0118 -0.2689  0.5412
 2841UDC     C431244  10.181  11.900   7.417  0.2785  0.3189  0.3387
 2841UDC     C531245  10.076  11.795   7.469 -1.3733 -0.6164 -0.3157
 2841UDC     C631246  10.126  11.648   7.456 -0.8724  0.0396  0.0827
 2841UDC     C731247  10.205  11.631   7.323  0.5310  0.3420  0.5394
 2841UDC     C831248  10.305  11.510   7.293  0.2839  0.6824  0.4643
 2841UDC     C931249  10.320  11.414   7.407  0.3199 -0.4969  0.4910
 2841UDC    C1031250  10.374  11.270   7.376 -1.0149 -0.3377 -0.4481
 2841UDC    C1131251  10.478  11.214   7.478 -0.9317  1.0014  0.2367
 2842UDC     C131252  10.825  16.973   8.756 -0.7801 -0.4298 -0.5992
 2842UDC     C231253  10.842  17.128   8.711 -0.3414  0.6658  0.5501
 2842UDC     C331254  10.977  17.179   8.772  0.0873  0.5574  0.4023
 2842UDC     C431255  11.111  17.128   8.713 -0.2777  0.1249  0.1327
 2842UDC     C531256  11.230  17.224   8.719 -0.5423 -0.6353  0.7207
 2842UDC     C631257  11.347  17.187   8.620  1.3746 -1.5069  0.1965
 2842UDC     C731258  11.438  17.061   8.664  0.2887 -0.0740 -0.6831
 2842UDC     C831259  11.551  17.027   8.567  0.2063 -0.1744  0.6300
 2842UDC     C931260  11.680  17.111   8.579  1.3784  0.6926  0.0528
 2842UDC    C1031261  11.785  17.105   8.464 -0.4252 -0.2560  0.5094
 2842UDC    C1131262  11.897  17.209   8.479 -0.6761  1.5203 -0.7976
 2843UDC     C131263  12.430   8.903   0.746 -0.3070 -0.4326  0.9960
 2843UDC     C231264  12.394   9.043   0.699 -0.0955 -1.0577  0.9516
 2843UDC     C331265  12.349   9.151   0.801  0.1916  1.1544  1.1940
 2843UDC     C431266  12.458   9.167   0.902 -0.5840 -0.2063  0.1088
 2843UDC     C531267  12.418   9.232   1.039 -0.1396 -0.3717  0.9962
 2843UDC     C631268  12.526   9.297   1.135 -0.6021 -0.3279  0.5545
 2843UDC     C731269  12.646   9.204   1.144  0.6321 -0.1165 -0.2789
 2843UDC     C831270  12.728   9.244   1.270 -0.4667  0.2502  1.2138
 2843UDC     C931271  12.876   9.214   1.257  1.2087  1.8154 -0.4609
 2843UDC    C1031272  12.990   9.274   1.345  0.8922 -0.0535  0.5029
 2843UDC    C1131273  12.994   9.426   1.309 -0.8372  0.3733 -0.0202
 2844UDC     C131274   0.744   1.581   9.045  0.3055  0.1054  1.0173
 2844UDC     C231275   0.782   1.537   8.897 -0.7124  0.5753 -0.2466
 2844UDC     C331276   0.692   1.425   8.850 -0.2239 -1.3515 -0.4486
 2844UDC     C431277   0.747   1.372   8.720  0.4941 -0.5238  0.3850
 2844UDC     C531278   0.661   1.254   8.652 -0.4190 -0.9537  0.6458
 2844UDC     C631279   0.715   1.219   8.511  0.0843  0.5745 -0.4379
 2844UDC     C731280   0.610   1.140   8.435  0.3669  0.7998 -0.3746
 2844UDC     C831281   0.642   1.131   8.285 -1.0812 -1.1710  0.3073
 2844UDC     C931282   0.716   1.254   8.222  0.2266 -0.2169 -0.3646
 2844UDC    C1031283   0.755   1.215   8.081 -0.1704 -0.1801  0.1303
 2844UDC    C1131284   0.843   1.329   8.022  0.8150  0.8035 -0.5705
 2845UDC     C131285   1.552  11.029  17.172  0.1816 -0.1974  0.9619
 2845UDC     C231286   1.405  11.020  17.226 -0.3638  0.0011 -0.4918
 2845UDC     C331287   1.367  11.123  17.322 -0.1466  0.1968 -0.1357
 2845UDC     C431288   1.241  11.111  17.406 -0.7010 -0.4794 -0.2885
 2845UDC     C531289   1.187  11.228  17.498  0.9845 -0.0074 -0.6786
 2845UDC     C631290   1.314  11.285  17.565 -0.2735  0.4914  0.1408
 2845UDC     C731291   1.278  11.394  17.670  0.5515  0.6936  1.4639
 2845UDC     C831292   1.391  11.479  17.729 -0.2791  1.1770  0.1202
 2845UDC     C931293   1.514  11.398  17.793  0.2527 -0.5266  0.2236
 2845UDC    C1031294   1.649  11.460  17.764 -0.8631 -0.0951 -1.0441
 2845UDC    C1131295   1.781  11.417  17.840 -0.1153  0.3045 -0.5479
 2846UDC     C131296  15.242  15.546  11.160  0.7148  0.1803  0.9719
 2846UDC     C231297  15.176  15.514  11.298  0.2713 -0.7244  0.5721
 2846UDC     C331298  15.240  15.596  11.424 -0.8945  0.2672  0.0594
 2846UDC     C431299  15.182  15.554  11.565 -0.1019 -0.2159  0.0992
 2846UDC     C531300  15.249  15.425  11.619 -0.8648 -0.0896  0.2388
 2846UDC     C631301  15.195  15.396  11.760 -0.5573  0.6579 -0.8402
 2846UDC     C731302  15.285  15.284  11.823  1.2181  0.3672 -0.8296
 2846UDC     C831303  15.262  15.266  11.975  0.9657  0.6917 -0.1103
 2846UDC     C931304  15.327  15.134  12.028 -0.5218 -0.2413  0.2284
 2846UDC    C1031305  15.319  15.136  12.181  1.0802  0.1732  0.1802
 2846UDC    C1131306  15.184  15.172  12.251 -0.4484 -0.1163 -0.0335
 2847UDC     C131307   6.932  19.945  17.078  0.1901  0.4752  0.0260
 2847UDC     C231308   6.966  19.992  17.217 -0.3252  0.5417 -0.1995
 2847UDC     C331309   7.006  20.144  17.214 -0.2031 -0.0318 -0.2000
 2847UDC     C431310   6.938  20.225  17.101  0.2448 -1.1623 -0.5514
 2847UDC     C531311   7.019  20.342  17.055  0.2654 -0.3115 -0.7423
 2847UDC     C631312   6.982  20.404  16.921  0.1674 -0.4641 -0.0613
 2847UDC     C731313   6.858  20.490  16.929  0.1660  0.2077  0.5481
 2847UDC     C831314   6.870  20.639  16.975  0.3457 -0.5196  1.0528
 2847UDC     C931315   6.820  20.677  17.115  1.3247  0.6170  0.7682
 2847UDC    C1031316   6.905  20.637  17.239 -0.4700  0.1057 -0.8045
 2847UDC    C1131317   6.918  20.744  17.356 -0.5182  0.0242 -0.0524
 2848UDC     C131318  19.562  13.275   0.120  0.5945 -0.0589 -0.0137
 2848UDC     C231319  19.441  13.353   0.183 -0.7676 -0.0642  0.4762
 2848UDC     C331320  19.461  13.396   0.331 -0.7358 -0.0356 -0.8770
 2848UDC     C431321  19.361  13.484   0.404  0.1360 -0.0371  0.8373
 2848UDC     C531322  19.226  13.406   0.412 -0.2341 -0.6841 -0.5624
 2848UDC     C631323  19.250  13.292   0.517  0.8408 -0.2498  1.1642
 2848UDC     C731324  19.149  13.183   0.492  0.5657  0.2460 -0.6807
 2848UDC     C831325  19.191  13.103   0.368 -0.0776  0.5094  1.8102
 2848UDC     C931326  19.094  13.075   0.250  1.2518  0.5799 -0.2469
 2848UDC    C1031327  19.088  12.922   0.231  0.7404 -0.3751 -0.1592
 2848UDC    C1131328  19.216  12.858   0.181  0.4576 -0.3841  0.1582
 2849UDC     C131329  17.222  10.803  10.373  1.1660 -0.6601 -0.4504
 2849UDC     C231330  17.358  10.769  10.425 -0.8985 -0.6525  0.4906
 2849UDC     C331331  17.447  10.883  10.385  0.0139 -1.0830  0.3004
 2849UDC     C431332  17.604  10.879  10.406  0.7090  0.4444 -0.1341
 2849UDC     C531333  17.684  10.987  10.338  0.0543 -1.1230  0.6660
 2849UDC     C631334  17.695  10.979  10.181 -0.1514 -0.0448 -0.1013
 2849UDC     C731335  17.812  10.882  10.131 -0.3918 -1.1897  1.1830
 2849UDC     C831336  17.804  10.859   9.985  0.6951  0.3299 -0.5138
 2849UDC     C931337  17.679  10.827   9.900 -0.3093  1.2718  0.8699
 2849UDC    C1031338  17.731  10.723   9.799  0.4159 -0.8036 -0.3479
 2849UDC    C1131339  17.779  10.592   9.861  0.1604 -1.0974 -0.9410
 2850UDC     C131340   8.710   5.832  17.516  0.4159  0.2623 -0.3581
 2850UDC     C231341   8.695   5.712  17.609 -0.7127 -0.9231 -0.2151
 2850UDC     C331342   8.763   5.584  17.552 -0.0686  0.1499 -0.4934
 2850UDC     C431343   8.703   5.469  17.472 -0.3071  0.4116 -0.3980
 2850UDC     C531344   8.646   5.484  17.342 -1.1686  0.7576 -0.4988
 2850UDC     C631345   8.519   5.562  17.347 -0.2249  0.7506 -1.0671
 2850UDC     C731346   8.455   5.583  17.206  0.0147 -0.0968  0.7787
 2850UDC     C831347   8.412   5.454  17.140  1.6038 -0.6861 -0.3327
 2850UDC     C931348   8.343   5.357  17.235  0.1155 -1.4566 -0.3664
 2850UDC    C1031349   8.300   5.213  17.193 -0.1285 -0.1141  0.0314
 2850UDC    C1131350   8.150   5.208  17.143 -0.4943  0.8414  0.1058
 2851UDC     C131351   5.155  18.226   1.567  0.2175  0.0480  0.3045
 2851UDC     C231352   5.273  18.302   1.499  0.6551 -0.2687 -1.0645
 2851UDC     C331353   5.289  18.298   1.348  0.9879 -0.5695  0.2119
 2851UDC     C431354   5.430  18.334   1.311 -0.8563 -0.1023  0.1687
 2851UDC     C531355   5.511  18.206   1.292  0.2724 -0.5914  0.2049
 2851UDC     C631356   5.578  18.128   1.402  1.1513  0.2192 -0.3005
 2851UDC     C731357   5.687  18.206   1.463 -0.3115 -0.7234 -0.8047
 2851UDC     C831358   5.800  18.129   1.536  0.4987 -0.9649 -0.4343
 2851UDC     C931359   5.734  18.027   1.642  0.1330  0.0317  0.6397
 2851UDC    C1031360   5.832  17.989   1.751 -0.5753 -0.9247  0.1026
 2851UDC    C1131361   5.848  18.112   1.837 -0.6826  0.3735  0.1662
 2852UDC     C131362  12.877  13.805   7.888  0.9343 -0.1424  0.3060
 2852UDC     C231363  12.957  13.863   7.767  0.6852 -0.3148  0.2713
 2852UDC     C331364  12.869  13.852   7.643  0.5867  0.4169  0.4949
 2852UDC     C431365  12.942  13.795   7.521  0.2216 -0.8747  0.2506
 2852UDC     C531366  12.884  13.854   7.386 -0.2544  0.3446 -0.5411
 2852UDC     C631367  12.916  13.784   7.256 -0.8101  0.1813  0.4731
 2852UDC     C731368  12.911  13.863   7.126  0.4271 -0.6024 -0.1115
 2852UDC     C831369  13.019  13.968   7.101 -0.1103  0.4675  0.3344
 2852UDC     C931370  12.983  14.036   6.966 -1.0415  0.0278 -0.4946
 2852UDC    C1031371  13.107  14.121   6.919  0.1478 -0.4331  0.1508
 2852UDC    C1131372  13.227  14.024   6.898  0.2408 -0.4092  0.0845
 2853UDC     C131373   6.856   2.996   9.057 -0.8163 -0.5970  1.0454
 2853UDC     C231374   6.864   3.029   8.903 -0.9127  0.1503  0.0911
 2853UDC     C331375   6.985   2.994   8.808 -0.0989 -0.8077  0.0700
 2853UDC     C431376   6.999   3.061   8.667 -0.2622 -0.1738  0.4917
 2853UDC     C531377   7.140   3.025   8.611  0.3125 -0.3427 -0.8102
 2853UDC     C631378   7.175   3.059   8.465 -0.1558  1.4467 -0.2835
 2853UDC     C731379   7.170   2.947   8.355  0.5134 -0.5533 -0.2306
 2853UDC     C831380   7.202   3.023   8.223  0.5224 -0.5920 -0.2302
 2853UDC     C931381   7.113   3.129   8.149  0.7935  0.1141 -0.3238
 2853UDC    C1031382   7.181   3.216   8.047 -0.4821  0.5987  0.8135
 2853UDC    C1131383   7.112   3.353   8.026  0.3394  0.9539  0.7552
 2854UDC     C131384  13.929  14.400  10.683  1.2571 -0.0155  0.4742
 2854UDC     C231385  14.008  14.297  10.605  0.1220 -0.3803  0.0268
 2854UDC     C331386  14.027  14.156  10.666 -1.0686  0.0472 -0.0172
 2854UDC     C431387  14.151  14.091  10.592  0.3687 -0.7282 -0.4971
 2854UDC     C531388  14.293  14.127  10.641 -0.7738  0.5957 -0.9317
 2854UDC     C631389  14.416  14.055  10.579 -0.3670  0.8853 -0.5245
 2854UDC     C731390  14.551  14.125  10.629  0.4380  0.7096  0.5964
 2854UDC     C831391  14.680  14.090  10.556  0.4788  0.1928 -0.5033
 2854UDC     C931392  14.661  14.015  10.422  0.0131  0.1460 -0.3664
 2854UDC    C1031393  14.645  14.104  10.290  1.3055 -0.0090  0.0610
 2854UDC    C1131394  14.786  14.145  10.233  0.0892 -0.4177 -0.5628
 2855UDC     C131395  12.555   9.235   7.950 -0.0685 -0.0562 -0.0383
 2855UDC     C231396  12.469   9.117   8.001 -0.7384 -0.3119 -0.6964
 2855UDC     C331397  12.370   9.162   8.102  0.8890 -0.1164 -0.3569
 2855UDC     C431398  12.299   9.050   8.186  1.6750  1.3086 -0.1664
 2855UDC     C531399  12.366   9.001   8.322  1.2368 -0.1507  0.2470
 2855UDC     C631400  12.389   9.125   8.410  0.0826 -0.6737 -0.7168
 2855UDC     C731401  12.421   9.108   8.555 -0.5935  0.5676  0.1063
 2855UDC     C831402  12.441   9.227   8.654  0.2128 -0.7896  0.2391
 2855UDC     C931403  12.432   9.198   8.806  0.1287  0.3035  0.7054
 2855UDC    C1031404  12.522   9.287   8.892 -0.2263 -0.6769 -0.0338
 2855UDC    C1131405  12.532   9.306   9.036  0.2127 -0.0724 -0.4680
 2856UDC     C131406  16.751  16.218   5.020  0.1034 -0.0044  0.0126
 2856UDC     C231407  16.713  16.338   5.104 -0.5221  0.0749 -0.2681
 2856UDC     C331408  16.577  16.409   5.087 -0.1700 -0.5311 -0.8382
 2856UDC     C431409  16.523  16.457   4.950 -0.0185 -0.6235  0.7722
 2856UDC     C531410  16.644  16.491   4.850  0.0574 -1.3344  0.3176
 2856UDC     C631411  16.620  16.619   4.768 -0.1779 -0.6912 -0.0457
 2856UDC     C731412  16.575  16.744   4.841  0.7763  0.1903 -0.9601
 2856UDC     C831413  16.640  16.869   4.792 -0.5962 -0.2754 -0.1055
 2856UDC     C931414  16.602  16.984   4.886  0.2604  0.0684 -1.3762
 2856UDC    C1031415  16.677  17.109   4.848  0.5631  0.8890  0.2673
 2856UDC    C1131416  16.670  17.212   4.959 -0.0381  1.3624 -0.5654
 2857UDC     C131417   7.641   7.850   6.440 -0.6937 -0.4022 -0.4659
 2857UDC     C231418   7.527   7.748   6.471  0.8200 -0.0937  0.7518
 2857UDC     C331419   7.405   7.811   6.540  0.0498  1.0689  0.4150
 2857UDC     C431420   7.298   7.718   6.598  0.2607  0.5547  0.9707
 2857UDC     C531421   7.219   7.797   6.695 -0.3234 -0.0144 -0.6593
 2857UDC     C631422   7.092   7.733   6.750 -0.7056 -0.6659  0.3670
 2857UDC     C731423   7.046   7.794   6.886  0.2262  0.6023  0.4708
 2857UDC     C831424   6.987   7.939   6.907 -0.6562  0.1754  0.4439
 2857UDC     C931425   6.945   7.994   7.046  0.7183  0.3780  0.7002
 2857UDC    C1031426   6.805   8.053   7.052 -0.0306  0.2921 -0.1281
 2857UDC    C1131427   6.784   8.145   7.171  0.0617  0.4052 -0.4906
 2858UDC     C131428  18.837   3.634  15.064 -0.1895 -0.1218  0.2025
 2858UDC     C231429  18.694   3.646  15.012 -0.3420 -0.4226  0.1762
 2858UDC     C331430  18.592   3.557  15.074  0.7522 -0.0167  0.4990
 2858UDC     C431431  18.453   3.565  15.004  0.9804 -0.4230  0.4850
 2858UDC     C531432  18.346   3.466  15.043  0.2279  0.0642  1.0982
 2858UDC     C631433  18.364   3.321  14.992  1.4175  0.2067 -1.0206
 2858UDC     C731434  18.241   3.241  15.028 -0.5738  0.1482  1.2826
 2858UDC     C831435  18.216   3.215  15.179 -0.6996 -0.1547  0.1787
 2858UDC     C931436  18.324   3.131  15.255 -0.7062  0.3068 -0.9356
 2858UDC    C1031437  18.275   3.097  15.399 -0.4492 -0.1948  0.5637
 2858UDC    C1131438  18.300   3.216  15.486 -0.4393  0.0516 -1.0141
 2859UDC     C131439   5.287   4.116  16.826  0.3164 -0.5126 -0.0610
 2859UDC     C231440   5.215   3.987  16.805  0.3886  0.7106 -1.0136
 2859UDC     C331441   5.130   3.957  16.942 -1.9788 -0.6478  0.1836
 2859UDC     C431442   5.220   3.944  17.069 -0.1002 -0.3956 -1.0687
 2859UDC     C531443   5.163   3.866  17.192 -0.9561  1.1548 -0.2641
 2859UDC     C631444   5.251   3.827  17.306  0.8013 -0.6301 -0.2388
 2859UDC     C731445   5.156   3.752  17.404 -0.8044 -0.6341  0.3272
 2859UDC     C831446   5.140   3.796  17.547  0.4709  0.4903  0.9343
 2859UDC     C931447   5.064   3.930  17.573 -0.2381  0.9373 -0.2419
 2859UDC    C1031448   5.039   3.964  17.726 -0.5261  0.2865  0.6869
 2859UDC    C1131449   4.966   4.094  17.760 -1.1288  0.3685 -0.3161
 2860UDC     C131450   0.959  16.339  14.942  0.0055  0.2604 -0.0018
 2860UDC     C231451   1.112  16.336  14.916 -0.9984 -0.7587 -0.2140
 2860UDC     C331452   1.150  16.490  14.909  0.3153 -0.0574 -0.4838
 2860UDC     C431453   1.152  16.547  15.054  0.3861  0.2157  0.7292
 2860UDC     C531454   1.287  16.549  15.130 -0.0766 -0.7481  0.5360
 2860UDC     C631455   1.283  16.621  15.268  0.2658 -0.4267 -0.5192
 2860UDC     C731456   1.422  16.651  15.335  0.2617 -0.5698 -0.9488
 2860UDC     C831457   1.489  16.525  15.383 -0.9229  0.5734 -0.6048
 2860UDC     C931458   1.408  16.427  15.470 -0.6744  0.4956 -0.6012
 2860UDC    C1031459   1.347  16.473  15.607 -0.6583  0.2449 -0.2307
 2860UDC    C1131460   1.212  16.407  15.630 -0.2705 -0.2648  0.1667
 2861UDC     C131461  15.234   0.564   7.309  1.5332 -0.3713 -0.4448
 2861UDC     C231462  15.384   0.594   7.334 -0.0559 -0.0115  0.8974
 2861UDC     C331463  15.405   0.750   7.342  0.0547  0.1036 -1.3398
 2861UDC     C431464  15.531   0.788   7.426  0.3733 -1.0073 -0.3917
 2861UDC     C531465  15.524   0.925   7.500 -0.0024 -0.6371  0.8661
 2861UDC     C631466  15.650   0.946   7.575  0.3473  0.9271  0.0814
 2861UDC     C731467  15.685   0.819   7.656 -0.3964  0.2858 -0.1382
 2861UDC     C831468  15.838   0.836   7.669  0.3144  0.7183  0.4446
 2861UDC     C931469  15.920   0.756   7.773  0.4734 -0.4034  0.4340
 2861UDC    C1031470  16.046   0.683   7.710 -0.3383 -0.0563  0.5077
 2861UDC    C1131471  16.038   0.539   7.652  0.1204  0.0004  0.8468
 2862UDC     C131472   5.145   5.493   8.470 -0.2888  0.5363 -0.1866
 2862UDC     C231473   5.178   5.587   8.587 -0.8497  0.7693  0.8076
 2862UDC     C331474   5.152   5.734   8.557  0.2494 -0.8711 -0.4843
 2862UDC     C431475   5.180   5.808   8.686 -0.7702 -0.7595 -1.1077
 2862UDC     C531476   5.048   5.807   8.774 -0.4042 -0.2668  0.6880
 2862UDC     C631477   5.001   5.938   8.840 -0.5345 -0.1704  0.2796
 2862UDC     C731478   4.973   6.049   8.732  0.1304  0.0871 -1.1473
 2862UDC     C831479   4.886   6.166   8.795 -1.6555 -0.1334 -0.2811
 2862UDC     C931480   4.838   6.264   8.685 -1.2509 -0.7286  0.5894
 2862UDC    C1031481   4.782   6.180   8.570 -0.3655  0.1721  1.1580
 2862UDC    C1131482   4.723   6.255   8.450  0.0329  0.0610  0.0435
 2863UDC     C131483  13.397  16.856   9.314  0.4447 -0.3397 -0.0084
 2863UDC     C231484  13.404  16.932   9.183 -0.1999 -0.3545  0.0970
 2863UDC     C331485  13.406  16.841   9.056  1.8170 -0.6242 -0.1138
 2863UDC     C431486  13.478  16.705   9.081  1.0268  0.2621  1.1237
 2863UDC     C531487  13.428  16.583   8.999 -1.1667  1.0721 -0.8606
 2863UDC     C631488  13.327  16.492   9.082 -0.3489 -1.0995  0.7498
 2863UDC     C731489  13.180  16.486   9.020 -0.3327 -0.4486  0.1508
 2863UDC     C831490  13.082  16.378   9.074 -0.0387  0.2884 -0.1528
 2863UDC     C931491  12.992  16.316   8.959  0.8613 -0.0826  0.3062
 2863UDC    C1031492  12.891  16.414   8.891  0.3091 -0.1911 -1.1293
 2863UDC    C1131493  12.831  16.530   8.974 -0.3179  1.1227  0.7880
 2864UDC     C131494   4.891   6.959   9.934 -0.2044 -0.1623 -0.2753
 2864UDC     C231495   4.860   6.993  10.082  0.1906 -0.6532  0.0613
 2864UDC     C331496   4.855   7.150  10.098 -0.4855 -1.0568  1.0485
 2864UDC     C431497   4.874   7.202  10.243 -0.1305 -1.0249  0.5008
 2864UDC     C531498   4.810   7.337  10.262  0.7523  0.1271  0.0262
 2864UDC     C631499   4.849   7.394  10.400 -0.1699  0.6416  0.3178
 2864UDC     C731500   4.998   7.383  10.427  0.8141 -0.2830 -0.9579
 2864UDC     C831501   5.044   7.450  10.563  0.0785  0.3384 -0.3099
 2864UDC     C931502   5.189   7.401  10.594  0.6645 -0.0076 -0.4647
 2864UDC    C1031503   5.275   7.482  10.691 -0.4852 -0.8722 -1.2320
 2864UDC    C1131504   5.413   7.406  10.710  0.3525  0.2134 -0.3618
 2865UDC     C131505   9.603  12.932  13.737 -0.2771  0.1564 -0.4388
 2865UDC     C231506   9.611  13.082  13.719  1.3518  0.2554  0.1298
 2865UDC     C331507   9.736  13.137  13.649  0.1914  0.1313  0.9761
 2865UDC     C431508   9.769  13.112  13.498  0.2475 -0.1767  0.1079
 2865UDC     C531509   9.872  13.011  13.450 -0.2633  0.3538 -0.1345
 2865UDC     C631510   9.887  12.988  13.301  0.4813  0.3895 -0.5482
 2865UDC     C731511   9.928  12.849  13.260 -0.4195  1.0949  0.2577
 2865UDC     C831512   9.853  12.722  13.293  0.5905 -0.5539 -0.5998
 2865UDC     C931513   9.735  12.703  13.200  0.2526 -0.4351 -0.0404
 2865UDC    C1031514   9.633  12.617  13.280  0.2856  0.0424 -0.0963
 2865UDC    C1131515   9.700  12.492  13.333 -0.0640  1.0702 -0.4165
 2866UDC     C131516  12.353  13.092   7.463  0.2628  0.8900 -0.9923
 2866UDC     C231517  12.350  13.045   7.612 -0.3166  0.2682 -1.5970
 2866UDC     C331518  12.359  13.165   7.714 -0.4102  0.9319 -0.3118
 2866UDC     C431519  12.357  13.129   7.865  0.1077 -0.6514  0.8055
 2866UDC     C531520  12.461  13.043   7.934  0.3700 -0.0608  0.0299
 2866UDC     C631521  12.406  13.034   8.081 -0.1997 -0.2539  0.0710
 2866UDC     C731522  12.447  13.164   8.157  0.1246  0.6589 -0.1660
 2866UDC     C831523  12.425  13.135   8.308 -0.6889  0.6350 -1.2268
 2866UDC     C931524  12.492  13.249   8.393  0.6882 -0.2877  0.7672
 2866UDC    C1031525  12.634  13.228   8.436  0.6717  0.3540 -0.2576
 2866UDC    C1131526  12.698  13.336   8.528 -0.1955 -0.5043 -0.2629
 2867UDC     C131527   0.269   3.683  12.248  0.7375 -0.4291  0.7286
 2867UDC     C231528   0.255   3.577  12.362 -0.7313  0.4685 -0.3405
 2867UDC     C331529   0.116   3.503  12.356  0.7392  0.5438  1.0212
 2867UDC     C431530  -0.011   3.598  12.371 -0.6926  0.3488 -1.6928
 2867UDC     C531531  -0.147   3.546  12.318  0.1607 -0.9043  0.3241
 2867UDC     C631532  -0.138   3.441  12.203 -0.4818 -1.4630  0.2487
 2867UDC     C731533  -0.277   3.398  12.170  0.6216  0.2317 -0.0701
 2867UDC     C831534  -0.269   3.302  12.055 -0.1130  0.0988  0.7110
 2867UDC     C931535  -0.392   3.289  11.975  0.7761 -0.8232 -0.7995
 2867UDC    C1031536  -0.505   3.204  12.028  0.5423 -1.1500  0.7683
 2867UDC    C1131537  -0.467   3.060  12.051  0.5834 -0.1885 -0.2641
 2868UDC     C131538  13.967   8.424   0.221 -0.2767 -0.2372 -0.5058
 2868UDC     C231539  13.872   8.482   0.120  0.1095 -0.5514  0.5110
 2868UDC     C331540  13.758   8.562   0.187 -0.7813  1.0514  0.7183
 2868UDC     C431541  13.660   8.600   0.075  0.1875 -1.5029  0.2032
 2868UDC     C531542  13.565   8.718   0.089 -0.8500  0.2902 -0.0116
 2868UDC     C631543  13.608   8.835   0.179  0.3141 -0.7813  0.4505
 2868UDC     C731544  13.689   8.940   0.098  0.1206 -0.7949 -0.3415
 2868UDC     C831545  13.765   9.060   0.159 -0.3733 -0.4078 -0.0817
 2868UDC     C931546  13.828   9.165   0.069 -0.9503 -0.1117 -0.1988
 2868UDC    C1031547  13.822   9.143  -0.086 -0.7854  0.3159  0.2828
 2868UDC    C1131548  13.891   9.256  -0.162 -0.3258  0.6075  0.6290
 2869UDC     C131549  11.222   5.764   1.264 -0.4857  0.0366  1.1873
 2869UDC     C231550  11.329   5.667   1.321  0.0347  0.4859 -0.6698
 2869UDC     C331551  11.317   5.515   1.274  1.3384  0.3113 -0.0102
 2869UDC     C431552  11.414   5.403   1.319  0.5019  0.9910  0.2937
 2869UDC     C531553  11.318   5.284   1.338 -0.3508  0.1592  0.3621
 2869UDC     C631554  11.387   5.172   1.414  0.4377  1.1764 -0.5721
 2869UDC     C731555  11.405   5.044   1.328  0.2767 -0.4107 -0.0869
 2869UDC     C831556  11.347   4.917   1.390 -0.4187 -1.1587  0.3307
 2869UDC     C931557  11.450   4.853   1.487 -1.1238 -0.5084 -0.2651
 2869UDC    C1031558  11.385   4.737   1.573 -0.2284  0.5783  0.7455
 2869UDC    C1131559  11.289   4.647   1.496  1.4056 -1.3700 -0.7246
 2870UDC     C131560   0.509  10.364  12.422  0.0931 -0.0880 -0.2329
 2870UDC     C231561   0.552  10.499  12.363 -0.0595  0.1175 -0.6849
 2870UDC     C331562   0.449  10.596  12.303  0.0802  0.5657 -0.1191
 2870UDC     C431563   0.487  10.741  12.265 -0.3054  0.4361  0.3207
 2870UDC     C531564   0.437  10.846  12.366 -0.5345 -0.1928  0.2384
 2870UDC     C631565   0.457  10.995  12.308 -0.0399  0.3644 -0.7057
 2870UDC     C731566   0.496  11.001  12.158 -0.5953 -0.3676 -0.3906
 2870UDC     C831567   0.645  11.022  12.116  0.8015 -0.7017  0.8072
 2870UDC     C931568   0.679  11.045  11.965  0.0765  0.5499  1.0578
 2870UDC    C1031569   0.642  10.919  11.882  0.0115  0.8721  0.2550
 2870UDC    C1131570   0.674  10.927  11.730 -0.8068  1.4788 -0.6452
 2871UDC     C131571   3.187  11.084   2.390 -0.6017 -0.3920  0.1500
 2871UDC     C231572   3.203  11.221   2.453 -0.8251  1.4388 -0.6815
 2871UDC     C331573   3.187  11.217   2.606  1.4113 -0.4533  0.9431
 2871UDC     C431574   3.197  11.359   2.668  0.4594 -1.0861 -0.1897
 2871UDC     C531575   3.141  11.371   2.813  0.8324 -1.0388  0.5886
 2871UDC     C631576   3.234  11.355   2.935 -0.1461  1.4762 -0.2278
 2871UDC     C731577   3.180  11.414   3.069  0.3781  0.1204 -0.2220
 2871UDC     C831578   3.036  11.391   3.101  0.9462  0.2270  0.6932
 2871UDC     C931579   2.996  11.444   3.238 -0.3138  0.4625 -0.0709
 2871UDC    C1031580   2.873  11.375   3.306 -0.6934 -0.8126 -0.2643
 2871UDC    C1131581   2.834  11.463   3.428 -0.0026 -0.5680  0.9980
 2872UDC     C131582  13.397  19.953   2.507 -0.0202 -0.4046 -0.4324
 2872UDC     C231583  13.331  19.846   2.419 -0.2381  0.1565  0.0280
 2872UDC     C331584  13.292  19.725   2.505  0.2030  0.5758  0.2689
 2872UDC     C431585  13.422  19.657   2.572  0.4352 -0.4984  0.7488
 2872UDC     C531586  13.384  19.531   2.649 -0.8701  1.0108  0.7971
 2872UDC     C631587  13.529  19.488   2.697 -0.4858  0.2710  0.0423
 2872UDC     C731588  13.602  19.411   2.584 -0.9533  0.2051 -0.2276
 2872UDC     C831589  13.572  19.260   2.591  0.5744 -0.9829 -0.8821
 2872UDC     C931590  13.643  19.182   2.491 -0.9763  0.2114  0.1862
 2872UDC    C1031591  13.632  19.031   2.504  0.4013  0.0562 -1.2250
 2872UDC    C1131592  13.487  18.988   2.458  0.6346  0.3972  0.4525
 2873UDC     C131593  19.369  18.080   7.716  0.7046 -0.3777 -0.6141
 2873UDC     C231594  19.358  18.234   7.734 -0.1861 -0.1202 -0.1454
 2873UDC     C331595  19.232  18.272   7.801  0.7456 -0.5940 -0.4898
 2873UDC     C431596  19.106  18.302   7.723 -0.1000 -0.3976  0.8337
 2873UDC     C531597  18.985  18.299   7.810 -0.0950  0.3665 -0.6034
 2873UDC     C631598  18.957  18.156   7.860  0.1917  0.1779  0.3122
 2873UDC     C731599  18.849  18.135   7.972 -0.5504  0.2757  0.3274
 2873UDC     C831600  18.833  17.985   7.993 -0.2382  0.2290  0.0969
 2873UDC     C931601  18.749  17.962   8.118 -0.3188  0.1516 -0.1213
 2873UDC    C1031602  18.604  18.010   8.109 -1.0555  0.7801  0.5341
 2873UDC    C1131603  18.557  18.006   8.256  0.3445 -0.5122  0.0292
 2874UDC     C131604  11.978   5.595  10.894 -0.0735  0.1122 -0.5153
 2874UDC     C231605  11.971   5.749  10.873 -0.9410  0.8102 -0.8218
 2874UDC     C331606  12.074   5.802  10.773 -0.5288  0.5446  0.4450
 2874UDC     C431607  12.032   5.771  10.632 -0.8673  0.3215  0.8247
 2874UDC     C531608  12.061   5.893  10.543  0.3850  0.2412 -0.2397
 2874UDC     C631609  12.027   5.864  10.398  0.1063 -0.0206  0.0445
 2874UDC     C731610  12.021   5.994  10.324  0.0673 -0.0185 -0.1756
 2874UDC     C831611  12.129   6.102  10.333  0.1963 -0.3089  0.5726
 2874UDC     C931612  12.088   6.228  10.258  0.1246  0.5565  0.1865
 2874UDC    C1031613  12.157   6.346  10.331  0.1656  0.1476 -0.0984
 2874UDC    C1131614  12.133   6.493  10.282 -0.3927 -0.6340  0.2486
 2875UDC     C131615  12.406   9.660   7.221  0.2647 -0.0437 -0.3015
 2875UDC     C231616  12.506   9.547   7.190 -1.1130  0.2618 -0.4008
 2875UDC     C331617  12.456   9.428   7.096  0.3093  0.8174  0.2574
 2875UDC     C431618  12.553   9.312   7.080 -0.0902  0.3723 -0.0953
 2875UDC     C531619  12.488   9.181   7.021  0.0966  0.4514  0.4487
 2875UDC     C631620  12.600   9.074   7.008 -0.7609 -0.9325  0.0623
 2875UDC     C731621  12.670   9.030   7.141  0.8720  0.3016  0.5433
 2875UDC     C831622  12.579   8.978   7.258 -0.4141 -0.0248 -0.9493
 2875UDC     C931623  12.613   8.844   7.325 -0.5539  0.5039 -0.3408
 2875UDC    C1031624  12.760   8.795   7.344 -0.1193  0.1032  0.0047
 2875UDC    C1131625  12.815   8.843   7.485  1.1583  0.3461  1.5357
 2876UDC     C131626  10.624   9.329   7.754  0.0901  0.3972 -0.8056
 2876UDC     C231627  10.518   9.444   7.747 -0.2814 -0.4570 -0.7134
 2876UDC     C331628  10.549   9.526   7.873  0.6344 -0.2575  0.7281
 2876UDC     C431629  10.428   9.602   7.936  0.5675  0.9133 -0.2229
 2876UDC     C531630  10.318   9.532   8.027  0.2444  1.2016 -0.3167
 2876UDC     C631631  10.313   9.554   8.173  0.9915 -1.5906 -0.0657
 2876UDC     C731632  10.186   9.622   8.235  0.1879 -1.0674 -0.1173
 2876UDC     C831633  10.155   9.758   8.177  0.2678  0.2503 -0.0178
 2876UDC     C931634  10.031   9.838   8.229 -0.1499  0.6770 -1.3668
 2876UDC    C1031635   9.897   9.763   8.245  0.4505 -0.3805 -0.0824
 2876UDC    C1131636   9.775   9.818   8.318 -0.1083  0.4499  0.9235
 2877UDC     C131637   6.576   8.588  14.621 -0.2267 -0.7373 -0.2726
 2877UDC     C231638   6.639   8.448  14.569 -0.5767  2.0967  1.2019
 2877UDC     C331639   6.590   8.392  14.444  1.1246 -1.0130 -0.2968
 2877UDC     C431640   6.605   8.235  14.422 -1.2185  0.2275 -0.0201
 2877UDC     C531641   6.494   8.160  14.342 -0.2345 -0.6310  0.0492
 2877UDC     C631642   6.518   8.008  14.335 -0.5606 -0.2972 -0.8251
 2877UDC     C731643   6.433   7.940  14.223 -0.1464 -0.0998 -0.3948
 2877UDC     C831644   6.286   7.978  14.196  0.1314 -0.1972 -0.3424
 2877UDC     C931645   6.221   7.849  14.131 -1.6929 -0.6377 -1.6960
 2877UDC    C1031646   6.169   7.732  14.218 -0.6092  0.4437  0.4524
 2877UDC    C1131647   6.145   7.608  14.128 -0.7893  0.3318 -0.9393
 2878UDC     C131648  14.707  14.650  16.386 -0.1849 -1.3188  0.3971
 2878UDC     C231649  14.781  14.732  16.274 -0.1241  0.5575 -0.7736
 2878UDC     C331650  14.811  14.875  16.330  0.4556 -0.6530 -0.3673
 2878UDC     C431651  14.955  14.892  16.388  0.8992  0.8059  0.6802
 2878UDC     C531652  15.066  14.910  16.279  0.9170 -0.3550 -0.7640
 2878UDC     C631653  15.187  14.993  16.321  0.2741  0.1920  0.3318
 2878UDC     C731654  15.290  14.963  16.204 -0.3389  0.3018 -0.0101
 2878UDC     C831655  15.381  14.845  16.247 -0.3852 -0.2111  0.0514
 2878UDC     C931656  15.529  14.898  16.261  0.0637  0.5352  0.8300
 2878UDC    C1031657  15.570  14.958  16.118 -0.9345  0.8122 -0.4428
 2878UDC    C1131658  15.667  14.849  16.075 -0.5883  0.4079  0.2020
 2879UDC     C131659   1.286   6.058  10.506  0.8010 -0.1014 -0.1504
 2879UDC     C231660   1.371   5.932  10.488 -1.2331 -0.0684 -0.7007
 2879UDC     C331661   1.419   5.910  10.341 -0.2250  0.5814 -0.5068
 2879UDC     C431662   1.508   5.792  10.308  0.6752  0.1162 -0.3113
 2879UDC     C531663   1.613   5.779  10.424 -0.2025  0.0224 -0.2988
 2879UDC     C631664   1.718   5.880  10.377  0.1120 -0.4041  0.5653
 2879UDC     C731665   1.832   5.881  10.487 -0.0142 -0.1513 -0.0059
 2879UDC     C831666   1.942   5.997  10.484 -0.0797 -0.5325  0.8580
 2879UDC     C931667   1.982   5.998  10.642 -0.0605  0.9944  0.1237
 2879UDC    C1031668   2.044   5.868  10.695 -0.6629  0.4408  1.3519
 2879UDC    C1131669   2.047   5.866  10.850 -1.7046  0.5064  1.2018
 2880UDC     C131670  10.544  12.525   7.892  0.5388 -0.5010 -1.5310
 2880UDC     C231671  10.632  12.625   7.821  0.4293  0.8716  0.1831
 2880UDC     C331672  10.574  12.697   7.696 -0.0917  0.0563 -0.2170
 2880UDC     C431673  10.472  12.631   7.612  1.2489 -1.1706 -0.4019
 2880UDC     C531674  10.408  12.729   7.508 -0.4714  0.5982  0.3365
 2880UDC     C631675  10.512  12.806   7.428 -0.7295  0.0938  0.5876
 2880UDC     C731676  10.443  12.880   7.314 -0.1349 -1.1504 -0.0190
 2880UDC     C831677  10.530  12.998   7.247  0.8215 -0.4446  0.3737
 2880UDC     C931678  10.627  13.078   7.342  1.2355  0.5544 -0.4505
 2880UDC    C1031679  10.733  13.167   7.276  0.6945  1.1742 -0.8483
 2880UDC    C1131680  10.837  13.092   7.203 -0.6879 -0.0775  0.7407
 2881UDC     C131681  13.473   9.322   1.558  0.3400  0.6245 -0.3567
 2881UDC     C231682  13.439   9.291   1.411  0.7892  1.1454 -0.2475
 2881UDC     C331683  13.518   9.351   1.297  0.0921 -0.8075 -0.3618
 2881UDC     C431684  13.503   9.505   1.261 -0.3890 -0.3465  0.2295
 2881UDC     C531685  13.585   9.526   1.132  0.1228 -0.0438 -0.5006
 2881UDC     C631686  13.662   9.653   1.128 -0.5148  0.0203 -0.6420
 2881UDC     C731687  13.580   9.768   1.188 -0.3286 -1.2201 -0.4789
 2881UDC     C831688  13.496   9.833   1.071 -0.7344  0.2317  0.0364
 2881UDC     C931689  13.552   9.967   1.023 -0.1348  0.4063  0.8015
 2881UDC    C1031690  13.705   9.961   1.014  0.3641 -0.1410  0.2679
 2881UDC    C1131691  13.775  10.066   0.933  0.6303  0.4389  0.4372
 2882UDC     C131692   0.908   7.898   5.180  0.5321 -0.3758 -0.4112
 2882UDC     C231693   1.026   7.948   5.256 -0.2887 -0.2824 -0.7650
 2882UDC     C331694   1.119   7.840   5.310  0.3712 -0.4559  0.8429
 2882UDC     C431695   1.238   7.892   5.396 -0.2512  0.0962  0.5402
 2882UDC     C531696   1.341   7.786   5.430  1.0647 -0.8832  1.0719
 2882UDC     C631697   1.284   7.693   5.540  0.1091  0.0788  0.8634
 2882UDC     C731698   1.338   7.717   5.687 -0.1727  0.4913  0.5491
 2882UDC     C831699   1.484   7.771   5.671 -0.2770  0.0499 -0.5222
 2882UDC     C931700   1.574   7.808   5.795  0.4859  0.8084  0.2560
 2882UDC    C1031701   1.480   7.861   5.911 -0.5604  0.4044  1.2522
 2882UDC    C1131702   1.548   7.902   6.037  0.1218 -1.1360 -0.1013
 2883UDC     C131703  10.448  13.591   5.571 -0.5639  0.4277  0.2766
 2883UDC     C231704  10.455  13.475   5.463  0.2645  0.5301 -1.5153
 2883UDC     C331705  10.492  13.331   5.499  1.1432  0.7507 -0.1350
 2883UDC     C431706  10.466  13.207   5.406  0.9334 -0.7812 -0.8130
 2883UDC     C531707  10.349  13.109   5.435 -0.1241 -0.0206 -0.2191
 2883UDC     C631708  10.350  12.977   5.345  0.5160 -1.2056 -0.0722
 2883UDC     C731709  10.485  12.963   5.272 -0.1098 -0.8584  0.9268
 2883UDC     C831710  10.481  12.828   5.197 -0.0554 -0.6888  0.5481
 2883UDC     C931711  10.559  12.733   5.286 -0.7326  0.6524  0.7908
 2883UDC    C1031712  10.582  12.594   5.218 -0.1138  0.9438 -0.3422
 2883UDC    C1131713  10.462  12.505   5.211 -0.0774 -0.2607 -0.6178
 2884UDC     C131714   2.596  15.016  16.590 -0.5029 -0.9615 -0.0230
 2884UDC     C231715   2.465  14.969  16.515 -0.2619  0.1785 -1.1657
 2884UDC     C331716   2.501  14.837  16.445  0.2370 -0.6047 -0.5948
 2884UDC     C431717   2.641  14.853  16.385  0.8888  0.0536  0.5163
 2884UDC     C531718   2.675  14.730  16.295 -0.1149 -0.5471 -0.4321
 2884UDC     C631719   2.813  14.757  16.228 -0.0023  0.3695  1.1384
 2884UDC     C731720   2.926  14.794  16.320  0.3803 -0.0159 -0.4224
 2884UDC     C831721   2.976  14.669  16.391  0.6136  0.8604  1.5087
 2884UDC     C931722   3.003  14.552  16.302  1.0863  0.4819  0.6710
 2884UDC    C1031723   3.025  14.415  16.373 -1.3100 -0.3509  0.3520
 2884UDC    C1131724   3.152  14.421  16.452 -1.0081 -0.7146  0.9470
 2885UDC     C131725  15.268   9.464   6.446 -0.0085 -0.0389  0.1345
 2885UDC     C231726  15.337   9.357   6.368 -0.3961  0.3046  0.6464
 2885UDC     C331727  15.458   9.411   6.283 -0.1900 -0.1990  0.7037
 2885UDC     C431728  15.560   9.304   6.240  0.0794 -1.2538 -0.0309
 2885UDC     C531729  15.676   9.351   6.155 -0.3026 -0.5144  0.5667
 2885UDC     C631730  15.789   9.422   6.232  0.4508 -0.4292 -0.2930
 2885UDC     C731731  15.918   9.468   6.163 -0.0325  0.3771 -0.3492
 2885UDC     C831732  16.006   9.572   6.233 -0.2494  0.1554 -0.4392
 2885UDC     C931733  15.938   9.707   6.245 -1.0930 -0.0082 -1.2310
 2885UDC    C1031734  15.944   9.795   6.117  0.2487 -0.1364 -0.5374
 2885UDC    C1131735  15.869   9.923   6.137  0.0882 -0.5243 -0.7169
 2886UDC     C131736  13.341  16.835   4.078  1.0857 -0.5489  0.1076
 2886UDC     C231737  13.228  16.728   4.092 -0.8784  0.7862 -0.2655
 2886UDC     C331738  13.145  16.769   3.960 -0.7248  0.2998  0.3586
 2886UDC     C431739  13.020  16.678   3.944  1.0765  0.3474  0.3676
 2886UDC     C531740  12.930  16.713   3.820  0.2505  0.3598  0.6302
 2886UDC     C631741  12.971  16.668   3.679 -0.7473  0.6913 -0.4576
 2886UDC     C731742  12.973  16.757   3.556 -0.5696  0.7183  0.6152
 2886UDC     C831743  13.048  16.727   3.432 -0.7906  0.1303  0.2891
 2886UDC     C931744  12.996  16.805   3.316 -0.8612 -0.1896  0.1819
 2886UDC    C1031745  12.955  16.948   3.349  0.4198 -0.4346  0.7685
 2886UDC    C1131746  12.834  17.011   3.282 -0.1596  0.7771  0.1528
 2887UDC     C131747   4.750   2.793   3.397 -0.8799  0.7138  0.3062
 2887UDC     C231748   4.859   2.897   3.363  0.8516  0.8998  0.6278
 2887UDC     C331749   4.811   3.033   3.370 -0.4589 -0.5016 -0.3081
 2887UDC     C431750   4.751   3.074   3.503 -0.2756  0.3836  0.6349
 2887UDC     C531751   4.726   3.230   3.517  0.8372  0.6531 -0.1000
 2887UDC     C631752   4.729   3.306   3.649  0.2921  1.3257 -0.4340
 2887UDC     C731753   4.679   3.452   3.626 -0.1886 -0.2139 -0.2956
 2887UDC     C831754   4.643   3.533   3.760 -0.1998 -0.0693  0.4276
 2887UDC     C931755   4.733   3.657   3.790 -0.2901  0.4321 -0.1184
 2887UDC    C1031756   4.723   3.775   3.702 -1.2354 -1.8158 -0.4753
 2887UDC    C1131757   4.610   3.870   3.730 -0.6093 -0.0610  0.0795
 2888UDC     C131758  19.254  12.750   7.354 -0.1387  0.1820  0.8810
 2888UDC     C231759  19.153  12.851   7.314 -0.4042 -0.3645 -0.9419
 2888UDC     C331760  19.061  12.873   7.431 -0.9300  0.1420  0.4696
 2888UDC     C431761  19.115  12.927   7.567 -0.3398 -1.0969  0.2364
 2888UDC     C531762  18.999  12.968   7.659  0.7063  1.4542  0.5772
 2888UDC     C631763  18.918  13.098   7.631 -0.4815  0.2251 -0.9134
 2888UDC     C731764  18.799  13.141   7.726 -0.4196  0.0987  0.5757
 2888UDC     C831765  18.823  13.128   7.872 -0.0389 -0.6640  0.4968
 2888UDC     C931766  18.682  13.144   7.938 -1.2155 -0.6167  0.3037
 2888UDC    C1031767  18.574  13.074   7.864  0.7128 -0.1707 -0.3312
 2888UDC    C1131768  18.471  13.000   7.958 -0.1012 -0.0958  0.4263
 2889UDC     C131769   0.986   5.383  18.660 -0.1520  0.0999  0.2573
 2889UDC     C231770   1.139   5.369  18.660  0.2891  0.8201  0.3254
 2889UDC     C331771   1.188   5.240  18.590 -0.5973 -0.4439 -0.1154
 2889UDC     C431772   1.166   5.110  18.665 -0.5663 -0.5314  0.1042
 2889UDC     C531773   1.243   5.111  18.795 -1.0720 -0.0540  0.2251
 2889UDC     C631774   1.189   5.004  18.896  0.0936  0.3536  0.3795
 2889UDC     C731775   1.257   5.037  19.026 -0.1503 -0.3080  0.7499
 2889UDC     C831776   1.288   4.924  19.118 -0.0837 -0.2469 -0.6731
 2889UDC     C931777   1.180   4.846  19.204 -1.6524 -0.5340  1.1942
 2889UDC    C1031778   1.231   4.723  19.271 -0.6116  0.2367  0.0517
 2889UDC    C1131779   1.162   4.662  19.396  0.1030  0.0556  0.3757
 2890UDC     C131780   9.210  13.681  16.126  0.7176 -0.0174 -0.2555
 2890UDC     C231781   9.272  13.605  16.011  0.2201 -0.2134 -0.0131
 2890UDC     C331782   9.319  13.709  15.910 -0.1210  0.3415 -0.6394
 2890UDC     C431783   9.327  13.675  15.762  0.0882 -0.2905 -0.2292
 2890UDC     C531784   9.477  13.666  15.719  0.0305 -1.0465  0.2074
 2890UDC     C631785   9.517  13.602  15.588  0.5800 -0.1520 -0.5661
 2890UDC     C731786   9.666  13.598  15.574  0.7305 -0.3202 -0.1304
 2890UDC     C831787   9.728  13.744  15.569  0.4474 -0.5931  0.5599
 2890UDC     C931788   9.858  13.752  15.495 -1.0000  0.3193  0.0522
 2890UDC    C1031789   9.853  13.713  15.345 -0.3150  0.3817  0.3614
 2890UDC    C1131790   9.974  13.749  15.253 -0.8241 -0.7009  0.6673
 2891UDC     C131791  16.221   9.458   6.949 -0.5045 -0.4522 -0.0494
 2891UDC     C231792  16.306   9.493   7.073  0.2880  0.6014 -0.4102
 2891UDC     C331793  16.270   9.446   7.212  0.2944 -0.6261  0.5592
 2891UDC     C431794  16.119   9.465   7.226  0.2148 -0.8999  0.4266
 2891UDC     C531795  16.073   9.406   7.357 -0.4673 -1.0129  0.0482
 2891UDC     C631796  15.924   9.405   7.362  1.2631  0.0932  0.7168
 2891UDC     C731797  15.864   9.312   7.249 -0.1098  0.8281 -0.5239
 2891UDC     C831798  15.709   9.321   7.255 -1.2395  0.1975 -0.0628
 2891UDC     C931799  15.683   9.469   7.249 -0.2870 -0.1300 -0.4276
 2891UDC    C1031800  15.566   9.529   7.331 -1.1182  0.0862 -1.0630
 2891UDC    C1131801  15.562   9.684   7.341  0.3488  0.3149 -0.3830
 2892UDC     C131802   6.406  14.585  12.548  0.7497 -0.7172 -0.6694
 2892UDC     C231803   6.369  14.732  12.539  0.1938 -0.1296 -0.1131
 2892UDC     C331804   6.471  14.803  12.470 -1.2633 -0.5829  0.0883
 2892UDC     C431805   6.426  14.948  12.433  0.4199  0.6750  0.2799
 2892UDC     C531806   6.339  15.026  12.528 -0.8553 -0.5080  0.3005
 2892UDC     C631807   6.320  15.171  12.483 -0.3752 -0.2167  0.2533
 2892UDC     C731808   6.303  15.277  12.604  0.3323  0.0732  0.3812
 2892UDC     C831809   6.432  15.298  12.682 -0.6607 -0.0123 -0.4058
 2892UDC     C931810   6.444  15.324  12.833  0.6928  0.5929 -0.5165
 2892UDC    C1031811   6.574  15.396  12.867  0.5495  0.1136  0.2291
 2892UDC    C1131812   6.607  15.414  13.017  0.5339 -1.2395  0.4783
 2893UDC     C131813   0.140  16.220  13.408  0.8950  0.0529 -0.2911
 2893UDC     C231814   0.233  16.101  13.374  0.5333  0.3174  0.8439
 2893UDC     C331815   0.379  16.153  13.379  0.0945 -0.3983 -0.3554
 2893UDC     C431816   0.486  16.041  13.361  0.4651 -0.0618  1.0299
 2893UDC     C531817   0.516  16.010  13.214 -0.2649 -1.2660 -0.3449
 2893UDC     C631818   0.649  15.934  13.204 -1.0896 -0.2876 -0.0566
 2893UDC     C731819   0.673  15.886  13.347  0.9215 -0.2959  0.0334
 2893UDC     C831820   0.682  15.741  13.401 -0.5652 -0.3045  0.8816
 2893UDC     C931821   0.766  15.660  13.300  0.7694 -0.7865  0.3020
 2893UDC    C1031822   0.761  15.512  13.316 -0.4352  0.2167 -0.1618
 2893UDC    C1131823   0.855  15.442  13.211 -0.7502  0.1073 -0.4752
 2894UDC     C131824   5.474   1.272   9.774 -0.8088 -0.7722  0.0285
 2894UDC     C231825   5.375   1.389   9.795 -0.2263 -0.5626 -0.6160
 2894UDC     C331826   5.255   1.399   9.701 -1.0249  0.6415  0.4188
 2894UDC     C431827   5.299   1.498   9.587 -0.2927  0.2769  0.3183
 2894UDC     C531828   5.208   1.526   9.465  1.4517  0.5510 -0.2259
 2894UDC     C631829   5.199   1.395   9.385  0.5681  0.3488 -0.7516
 2894UDC     C731830   5.119   1.409   9.263 -0.0185  0.9410 -1.3891
 2894UDC     C831831   4.984   1.472   9.297  0.8121  0.1789 -0.1724
 2894UDC     C931832   4.893   1.497   9.161  0.7801  0.8796  0.5896
 2894UDC    C1031833   4.901   1.642   9.112  0.0041 -1.4425 -1.2032
 2894UDC    C1131834   4.840   1.737   9.217  0.1495 -0.5146  0.1439
 2895UDC     C131835   2.342  11.915  19.042  1.1320 -1.0506 -0.4441
 2895UDC     C231836   2.462  11.991  18.997  0.3153  0.0043  0.0894
 2895UDC     C331837   2.562  11.921  18.900  0.6100 -0.9028  1.0370
 2895UDC     C431838   2.524  11.857  18.761  0.7898 -0.1565 -0.1121
 2895UDC     C531839   2.644  11.813  18.672  0.5225 -0.0678  0.2587
 2895UDC     C631840   2.718  11.930  18.597  0.4919 -1.2358 -0.0409
 2895UDC     C731841   2.816  11.884  18.481 -0.8536  0.0380 -0.2988
 2895UDC     C831842   2.927  11.987  18.433 -0.1554 -0.0657 -0.4792
 2895UDC     C931843   3.039  11.934  18.343 -0.1476 -0.0927  0.0656
 2895UDC    C1031844   3.140  11.832  18.388 -0.1221 -0.0341  0.4715
 2895UDC    C1131845   3.280  11.889  18.411  0.1128  1.0923 -0.4060
 2896UDC     C131846   7.740   3.564  14.260  0.3732 -0.0683 -0.2599
 2896UDC     C231847   7.741   3.560  14.109 -0.3716 -0.1733 -0.3235
 2896UDC     C331848   7.845   3.466  14.040  1.0016 -0.5448 -0.1676
 2896UDC     C431849   7.831   3.397  13.897  0.0080 -0.6200 -0.1884
 2896UDC     C531850   7.708   3.318  13.858  1.6881 -0.4095  0.4984
 2896UDC     C631851   7.718   3.206  13.756 -0.1467  0.2237  0.8893
 2896UDC     C731852   7.570   3.153  13.727 -0.1373 -0.6168 -1.3966
 2896UDC     C831853   7.535   3.020  13.802  0.8080  0.1855  0.1303
 2896UDC     C931854   7.386   3.034  13.778  0.8003 -0.1642  0.2919
 2896UDC    C1031855   7.316   2.931  13.859 -0.1231  0.0740  0.0532
 2896UDC    C1131856   7.174   2.960  13.902  0.0562  0.4886 -0.2346
 2897UDC     C131857  18.534   9.105   5.449 -0.0830 -0.2715 -0.7243
 2897UDC     C231858  18.486   9.245   5.484 -0.7332 -1.0639 -0.0644
 2897UDC     C331859  18.468   9.259   5.640 -0.2483 -0.4983  0.8929
 2897UDC     C431860  18.326   9.217   5.668  0.7005  0.2334 -0.4238
 2897UDC     C531861  18.322   9.215   5.822  0.2902  0.3792 -0.5841
 2897UDC     C631862  18.188   9.176   5.888  0.3194 -0.0681  0.0792
 2897UDC     C731863  18.068   9.266   5.838  0.3924 -0.6100 -0.6112
 2897UDC     C831864  17.945   9.229   5.930 -0.0151 -0.1413 -0.3554
 2897UDC     C931865  17.814   9.282   5.885  0.7907 -0.1693  1.0615
 2897UDC    C1031866  17.708   9.296   5.990  0.0008 -0.7218 -0.7741
 2897UDC    C1131867  17.738   9.370   6.124  0.5336  0.9669  0.8770
 2898UDC     C131868  15.525  19.004   1.524 -0.2402  0.1670 -0.5501
 2898UDC     C231869  15.482  19.147   1.479 -0.0368  0.1386 -0.3383
 2898UDC     C331870  15.454  19.227   1.604 -0.4749 -0.4703  0.6207
 2898UDC     C431871  15.416  19.367   1.563  0.2289 -0.7485  1.0327
 2898UDC     C531872  15.440  19.412   1.419 -0.9695 -1.1339 -0.4366
 2898UDC     C631873  15.365  19.545   1.424 -1.2418  0.2665 -0.4111
 2898UDC     C731874  15.218  19.513   1.484  0.5769 -0.6653  0.3964
 2898UDC     C831875  15.136  19.639   1.496  0.6280 -0.9521 -1.1582
 2898UDC     C931876  15.138  19.738   1.385  0.5169 -0.3334  0.0637
 2898UDC    C1031877  15.043  19.861   1.380  0.4073  0.4027  1.3134
 2898UDC    C1131878  14.913  19.813   1.314 -0.5122  1.0285  0.2323
 2899UDC     C131879  13.760   1.905  18.038 -0.4950  0.2661  0.2404
 2899UDC     C231880  13.794   1.759  17.994 -0.0977  0.0075 -0.2828
 2899UDC     C331881  13.858   1.738  17.855  0.2651 -0.7139  0.0785
 2899UDC     C431882  13.894   1.593  17.820  0.8308 -0.3118 -1.0256
 2899UDC     C531883  13.973   1.580  17.688  0.3733 -0.1083 -0.6228
 2899UDC     C631884  14.092   1.683  17.668 -0.4115  0.6444 -0.2164
 2899UDC     C731885  14.160   1.659  17.535  0.1196 -0.3396  1.0622
 2899UDC     C831886  14.063   1.642  17.422 -0.4368 -0.3815  0.2630
 2899UDC     C931887  14.116   1.661  17.275  0.5639  0.2937  0.3047
 2899UDC    C1031888  14.022   1.741  17.179 -0.5841  0.6974  0.1602
 2899UDC    C1131889  13.984   1.662  17.055 -0.8140  0.0553 -0.3404
 2900UDC     C131890   9.212  14.488   5.841  0.1631  0.4560  0.4443
 2900UDC     C231891   9.308  14.432   5.943  0.6496 -0.4890 -1.1916
 2900UDC     C331892   9.260  14.441   6.090  1.6879 -0.2081  0.8257
 2900UDC     C431893   9.226  14.302   6.149  0.3083 -1.1184 -0.0934
 2900UDC     C531894   9.158  14.311   6.290 -0.4853  0.2484 -0.3073
 2900UDC     C631895   9.250  14.346   6.406  0.0250  0.0459  0.0258
 2900UDC     C731896   9.273  14.500   6.443  0.1224  0.0699 -0.7943
 2900UDC     C831897   9.161  14.593   6.500 -0.6559 -0.6471  0.7376
 2900UDC     C931898   9.175  14.679   6.633 -0.0661 -0.1729 -0.3461
 2900UDC    C1031899   9.165  14.602   6.761  0.4798 -0.2217 -0.4182
 2900UDC    C1131900   9.039  14.524   6.759 -0.3011  0.9205  0.0281
 2901UDC     C131901   3.259   3.540  13.644  0.6669  0.5551 -1.0554
 2901UDC     C231902   3.321   3.480  13.772  0.5235 -0.8327 -0.6982
 2901UDC     C331903   3.213   3.480  13.878  0.3121  0.5051  0.1035
 2901UDC     C431904   3.255   3.575  13.990 -0.2564  0.0991 -0.2956
 2901UDC     C531905   3.403   3.551  14.053  0.1580  0.1446 -0.0048
 2901UDC     C631906   3.430   3.642  14.178 -0.4373 -0.3578  0.1536
 2901UDC     C731907   3.385   3.790  14.166 -0.0096  0.4738 -0.0578
 2901UDC     C831908   3.503   3.867  14.116 -0.7617 -1.5323  1.3112
 2901UDC     C931909   3.496   4.020  14.136 -1.0987 -1.0938  0.1003
 2901UDC    C1031910   3.591   4.101  14.046  0.5802  0.6880 -0.3020
 2901UDC    C1131911   3.740   4.077  14.062  0.0982 -0.9716  1.0520
 2902UDC     C131912   6.966  13.529  11.118  0.5418 -1.3261 -0.0675
 2902UDC     C231913   7.057  13.418  11.186  0.0277  0.1524 -0.7075
 2902UDC     C331914   7.184  13.488  11.228  0.1357 -0.3252 -0.1310
 2902UDC     C431915   7.282  13.390  11.287 -0.2639  0.8252  0.1826
 2902UDC     C531916   7.411  13.451  11.347 -0.4681  0.2428 -0.1020
 2902UDC     C631917   7.502  13.530  11.250  0.0851  0.3313  0.8251
 2902UDC     C731918   7.616  13.600  11.328  0.4423 -0.6278  0.3200
 2902UDC     C831919   7.701  13.664  11.213  1.4756 -0.7060  0.6828
 2902UDC     C931920   7.849  13.656  11.222 -1.4943 -0.3141 -0.8679
 2902UDC    C1031921   7.950  13.742  11.131  1.2907  0.9634 -1.4709
 2902UDC    C1131922   7.932  13.720  10.977 -0.5644  0.1151 -0.7834
 2903UDC     C131923  15.984  17.406   8.019 -0.2723 -0.8694 -0.3679
 2903UDC     C231924  15.991  17.516   7.909  0.0161 -0.4479 -0.4335
 2903UDC     C331925  16.060  17.457   7.784  0.2496  0.5917  0.5488
 2903UDC     C431926  16.064  17.547   7.658 -0.4332  0.7710  0.3179
 2903UDC     C531927  16.078  17.466   7.533 -0.7556 -0.0571 -0.6598
 2903UDC     C631928  15.937  17.459   7.451  1.1817  0.2082  0.1880
 2903UDC     C731929  15.919  17.334   7.373 -0.1570 -1.1788  0.1781
 2903UDC     C831930  15.777  17.318   7.310 -0.7716  0.2295 -0.6731
 2903UDC     C931931  15.755  17.183   7.239  1.0150  0.8060  0.6852
 2903UDC    C1031932  15.617  17.174   7.165 -0.2430  0.0066  0.3332
 2903UDC    C1131933  15.597  17.267   7.050 -1.0263 -0.3178  0.5939
 2904UDC     C131934  13.932  17.159   0.389 -0.2675  0.2477 -0.5946
 2904UDC     C231935  13.929  17.242   0.522 -0.0500  0.2888  0.9933
 2904UDC     C331936  13.843  17.362   0.516 -0.9291  0.2830 -0.0478
 2904UDC     C431937  13.883  17.463   0.414 -0.2106  0.7792  0.4585
 2904UDC     C531938  13.787  17.562   0.361 -0.6863 -1.3578 -0.7602
 2904UDC     C631939  13.671  17.514   0.283  0.3861 -0.5938 -0.2863
 2904UDC     C731940  13.584  17.644   0.257  0.3127 -0.3873  0.1333
 2904UDC     C831941  13.554  17.726   0.377  0.2288  0.4163 -0.4706
 2904UDC     C931942  13.465  17.851   0.357  1.6845 -1.9721 -0.3396
 2904UDC    C1031943  13.338  17.782   0.318  0.0899  0.2846 -1.4153
 2904UDC    C1131944  13.275  17.694   0.428 -1.0313 -0.4533 -0.4320
 2905UDC     C131945  18.613   3.433  10.762 -0.4005 -1.3188  0.6176
 2905UDC     C231946  18.738   3.467  10.681 -0.9807 -0.8735 -0.2330
 2905UDC     C331947  18.875   3.472  10.750 -0.6242 -0.0365 -0.5266
 2905UDC     C431948  18.980   3.422  10.650  0.6342  0.6299  0.1688
 2905UDC     C531949  19.119   3.417  10.715  0.6854  0.2432 -0.4793
 2905UDC     C631950  19.233   3.389  10.620 -0.9137  0.6329  0.2546
 2905UDC     C731951  19.277   3.486  10.512 -0.0895 -0.2386  0.9748
 2905UDC     C831952  19.379   3.451  10.402  1.0517 -1.0148  0.8326
 2905UDC     C931953  19.391   3.558  10.285  0.5792 -0.2343  0.6489
 2905UDC    C1031954  19.476   3.516  10.162  0.9504 -0.0968  0.1135
 2905UDC    C1131955  19.456   3.619  10.054 -0.0544 -0.7922 -1.0085
 2906UDC     C131956   6.566  14.838  10.839  0.5904 -0.0827 -0.0684
 2906UDC     C231957   6.511  14.794  10.703 -0.3346  0.2637  1.5569
 2906UDC     C331958   6.605  14.684  10.663  0.3560 -0.4631 -0.8073
 2906UDC     C431959   6.584  14.663  10.509 -0.2161 -0.7443 -0.2201
 2906UDC     C531960   6.687  14.562  10.451 -0.6272 -0.4325 -0.8638
 2906UDC     C631961   6.701  14.430  10.524  0.1211 -0.5465  0.3270
 2906UDC     C731962   6.796  14.328  10.462 -0.8868  1.1815 -0.3985
 2906UDC     C831963   6.734  14.185  10.488  0.3116  0.6904 -0.4098
 2906UDC     C931964   6.815  14.093  10.393 -0.0997 -0.5952 -0.4807
 2906UDC    C1031965   6.779  13.947  10.434 -0.5538 -0.3878 -0.8931
 2906UDC    C1131966   6.822  13.837  10.343 -1.2434  1.0217  0.3292
 2907UDC     C131967  16.277   4.847  15.274  0.7335 -0.3356  1.3805
 2907UDC     C231968  16.306   4.974  15.358 -0.1475  0.2848  0.2091
 2907UDC     C331969  16.187   5.065  15.369 -0.1718 -0.1401  0.1758
 2907UDC     C431970  16.216   5.208  15.397  0.6019 -1.8067 -0.5418
 2907UDC     C531971  16.307   5.231  15.522  0.0069 -0.3705  1.0556
 2907UDC     C631972  16.249   5.165  15.642 -0.2954 -0.1417 -0.3983
 2907UDC     C731973  16.315   5.182  15.780  0.5950 -0.3249  0.9268
 2907UDC     C831974  16.424   5.080  15.794 -0.6401 -0.2123  0.7824
 2907UDC     C931975  16.487   5.122  15.930 -0.5314  0.0700 -0.6737
 2907UDC    C1031976  16.619   5.045  15.943  0.3252 -0.5854  0.1399
 2907UDC    C1131977  16.616   4.895  15.993 -0.0579  0.2829  0.1296
 2908UDC     C131978  14.003  19.604   5.529 -0.4855  0.0306 -0.7398
 2908UDC     C231979  14.072  19.743   5.520  0.6834  0.1189 -1.0620
 2908UDC     C331980  14.074  19.823   5.659  0.5077 -0.8943  0.7352
 2908UDC     C431981  14.151  19.744   5.769  1.1860 -0.1683  0.6374
 2908UDC     C531982  14.126  19.805   5.901  0.9610 -1.1973 -0.3923
 2908UDC     C631983  14.120  19.698   6.011  0.4009  0.1068  0.5555
 2908UDC     C731984  13.997  19.612   6.020 -0.2745  0.0651  0.3092
 2908UDC     C831985  13.906  19.722   6.080 -0.4939  0.7555 -1.0095
 2908UDC     C931986  13.765  19.664   6.100 -0.8926  0.5278  0.2590
 2908UDC    C1031987  13.678  19.782   6.133  0.5689  0.3552  0.5679
 2908UDC    C1131988  13.649  19.886   6.025  0.2247 -0.3659  1.1991
 2909UDC     C131989   0.885   0.924   3.382  0.6439  0.6589  0.1806
 2909UDC     C231990   0.866   0.770   3.367  0.1207 -0.2057  0.0001
 2909UDC     C331991   0.897   0.715   3.227  0.4756  0.5757  0.5046
 2909UDC     C431992   0.838   0.576   3.196  0.1127 -0.1415 -0.1108
 2909UDC     C531993   0.878   0.514   3.063  1.1981 -0.9021 -0.1617
 2909UDC     C631994   0.854   0.367   3.064  0.4023  0.3633  0.2759
 2909UDC     C731995   0.705   0.328   3.059  0.5104  0.9086  0.5719
 2909UDC     C831996   0.680   0.175   3.080  0.5279 -0.4567  0.8351
 2909UDC     C931997   0.700   0.089   2.955 -0.8445 -0.7380 -0.3887
 2909UDC    C1031998   0.628  -0.043   2.952 -0.8443  1.3661 -0.1477
 2909UDC    C1131999   0.481  -0.018   2.977 -0.1216 -0.9199  0.1881
 2910UDC     C132000   7.467  11.042   2.217  0.7552 -0.5433  0.5272
 2910UDC     C232001   7.341  10.959   2.172 -0.3403  1.8711 -1.2721
 2910UDC     C332002   7.232  10.947   2.281  0.1466 -0.6417  0.6240
 2910UDC     C432003   7.268  10.911   2.427 -0.0266  0.3924 -0.5144
 2910UDC     C532004   7.145  10.932   2.517 -0.8390  0.0807 -1.3825
 2910UDC     C632005   7.109  11.077   2.499 -0.1090  0.0631  0.1763
 2910UDC     C732006   7.187  11.174   2.592  1.0867  0.3589 -0.3719
 2910UDC     C832007   7.155  11.133   2.731  0.2874 -0.3664  0.5191
 2910UDC     C932008   7.012  11.157   2.769  0.3227  0.1450 -0.6396
 2910UDC    C1032009   6.999  11.135   2.925 -1.3718  0.6996  0.8118
 2910UDC    C1132010   7.061  11.241   3.027 -0.3275  0.0275  0.3073
 2911UDC     C132011  16.777   5.041   8.222  0.5250  0.6900 -0.6112
 2911UDC     C232012  16.839   5.171   8.262  0.7509 -0.3972 -0.6801
 2911UDC     C332013  16.755   5.298   8.233 -0.5676  0.7088 -0.0219
 2911UDC     C432014  16.828   5.403   8.327 -0.7815  0.1294 -0.9019
 2911UDC     C532015  16.786   5.552   8.313 -0.2890 -0.6469  1.1143
 2911UDC     C632016  16.788   5.613   8.165  0.5272 -0.4644 -0.5820
 2911UDC     C732017  16.670   5.709   8.153  1.1028 -0.0651  0.5753
 2911UDC     C832018  16.710   5.851   8.203 -0.9910  1.0674  0.1647
 2911UDC     C932019  16.604   5.956   8.240 -0.6377 -0.0410 -0.6473
 2911UDC    C1032020  16.522   5.982   8.117  0.4961 -1.3187  0.6223
 2911UDC    C1132021  16.398   6.065   8.154 -0.0095  0.3187  1.5122
 2912UDC     C132022   0.483  17.621  19.956 -1.0139 -1.5122 -0.6735
 2912UDC     C232023   0.421  17.525  20.057  0.4892 -0.6297  0.1658
 2912UDC     C332024   0.425  17.597  20.196 -0.0472 -0.1290  0.6194
 2912UDC     C432025   0.298  17.677  20.230 -0.2121 -0.5452 -0.5130
 2912UDC     C532026   0.296  17.724  20.378 -0.3878 -0.6533  0.7613
 2912UDC     C632027   0.188  17.828  20.405 -0.1397  0.4141 -0.5482
 2912UDC     C732028   0.194  17.916  20.532 -0.3036  0.9962  0.1655
 2912UDC     C832029   0.320  18.006  20.513 -0.2204 -0.2459 -0.2009
 2912UDC     C932030   0.290  18.154  20.532 -0.8657 -0.6488  0.5397
 2912UDC    C1032031   0.194  18.228  20.433  0.2852 -0.1238 -0.4866
 2912UDC    C1132032   0.257  18.304  20.320  0.0378 -0.2039 -0.0630
 2913UDC     C132033  17.904  18.012  19.532 -0.5905 -0.5553 -0.6346
 2913UDC     C232034  17.780  18.006  19.443  0.1649  0.7553 -0.5394
 2913UDC     C332035  17.689  17.881  19.475  0.5310  0.8925  0.2845
 2913UDC     C432036  17.708  17.778  19.374  1.0542 -0.1287  0.4534
 2913UDC     C532037  17.642  17.785  19.235 -0.5665 -0.4954 -0.3213
 2913UDC     C632038  17.711  17.673  19.159 -0.4201 -0.0936 -0.8164
 2913UDC     C732039  17.856  17.696  19.119 -0.3145 -0.1191 -0.2386
 2913UDC     C832040  17.933  17.570  19.061  0.2910  0.7356 -0.6285
 2913UDC     C932041  18.076  17.607  19.025  0.1102 -0.5342  0.3948
 2913UDC    C1032042  18.144  17.505  18.929 -0.0157 -0.3475 -1.3334
 2913UDC    C1132043  18.122  17.359  18.983 -0.0861 -0.3776  0.0432
 2914UDC     C132044  19.882  19.698   9.420 -0.9199 -0.5271 -0.6826
 2914UDC     C232045  19.831  19.841   9.394  0.5562  0.1229 -0.0146
 2914UDC     C332046  19.691  19.822   9.326  0.1158  0.7747  1.0106
 2914UDC     C432047  19.639  19.939   9.246 -0.3340  0.0677 -0.4384
 2914UDC     C532048  19.530  20.042   9.297 -0.1012  0.5116  0.1075
 2914UDC     C632049  19.565  20.117   9.425  0.4886  0.0373 -0.0726
 2914UDC     C732050  19.451  20.157   9.508 -0.1338  0.3634 -0.4508
 2914UDC     C832051  19.500  20.266   9.614 -1.1092  0.7532  0.4423
 2914UDC     C932052  19.558  20.185   9.733 -1.1802  1.4617  0.3272
 2914UDC    C1032053  19.494  20.188   9.874  0.1081 -0.1395 -0.4403
 2914UDC    C1132054  19.347  20.140   9.865 -0.6643 -0.2077 -0.2802
 2915UDC     C132055   6.791  12.297   1.052 -0.3100  0.6619 -0.1409
 2915UDC     C232056   6.939  12.346   1.052 -0.6845 -0.1150  0.6353
 2915UDC     C332057   6.985  12.395   1.190 -0.6304  0.9739 -1.0346
 2915UDC     C432058   7.137  12.422   1.206  0.3009 -0.0294  0.5903
 2915UDC     C532059   7.171  12.549   1.268 -0.6544 -0.3459 -0.6572
 2915UDC     C632060   7.160  12.542   1.428 -0.5017 -0.3338  0.8642
 2915UDC     C732061   7.016  12.561   1.476  0.4764  0.0115  0.3371
 2915UDC     C832062   6.970  12.703   1.421  0.2313 -0.2546  0.3503
 2915UDC     C932063   6.850  12.766   1.488 -0.6860 -0.6512 -1.3941
 2915UDC    C1032064   6.838  12.919   1.458  0.2502  0.4450 -1.0206
 2915UDC    C1132065   6.753  12.952   1.331 -1.2134  0.6765 -1.4036
 2916UDC     C132066   2.250   7.811   6.238 -0.4201  0.1515 -1.1324
 2916UDC     C232067   2.151   7.740   6.157  0.6364  0.6775 -0.8419
 2916UDC     C332068   2.122   7.619   6.244  1.2919  1.2260 -0.5903
 2916UDC     C432069   1.974   7.623   6.284 -0.5420  0.4470  0.3309
 2916UDC     C532070   1.961   7.467   6.305 -0.4408 -0.9710 -0.5196
 2916UDC     C632071   1.900   7.407   6.428 -0.2087  0.3858  0.8523
 2916UDC     C732072   1.906   7.253   6.421 -0.0344  0.5960 -0.2864
 2916UDC     C832073   1.816   7.192   6.532  0.0302 -0.2930  0.1328
 2916UDC     C932074   1.825   7.272   6.668  0.4239 -0.4749  0.2064
 2916UDC    C1032075   1.742   7.222   6.782 -0.0210  0.2401  0.8115
 2916UDC    C1132076   1.600   7.197   6.751 -0.4248  0.1190 -0.0184
 2917UDC     C132077   8.056   3.889   4.082 -0.6134  0.1302 -0.2411
 2917UDC     C232078   8.056   3.818   4.210 -0.6548 -0.7180 -0.6157
 2917UDC     C332079   8.119   3.678   4.202  0.3704 -1.5404 -0.0387
 2917UDC     C432080   8.122   3.601   4.335 -0.8607 -1.4034  0.0355
 2917UDC     C532081   8.173   3.459   4.310  0.2537  0.8787  0.5176
 2917UDC     C632082   8.143   3.360   4.422  0.1698  0.3484 -0.2161
 2917UDC     C732083   8.224   3.227   4.401 -0.3743 -1.6015 -0.0208
 2917UDC     C832084   8.381   3.229   4.391  0.4202 -0.3629 -0.3416
 2917UDC     C932085   8.468   3.102   4.401 -1.0232 -0.1632 -0.0700
 2917UDC    C1032086   8.619   3.119   4.410  1.2036  0.7649 -1.2604
 2917UDC    C1132087   8.679   2.994   4.342  0.1385 -0.9898  0.1257
 2918UDC     C132088   3.167  11.065   4.251  0.1205  0.6309 -0.1045
 2918UDC     C232089   3.320  11.066   4.250 -0.6663  0.3042  0.3931
 2918UDC     C332090   3.383  11.006   4.120 -0.8908 -0.3321 -0.7535
 2918UDC     C432091   3.368  10.854   4.101 -0.0021  0.1071  0.4557
 2918UDC     C532092   3.452  10.789   3.993 -0.0163 -0.3903  1.0142
 2918UDC     C632093   3.395  10.783   3.847  0.9072 -0.7695 -0.8662
 2918UDC     C732094   3.297  10.661   3.845 -0.6767 -0.6221 -0.3760
 2918UDC     C832095   3.294  10.554   3.745  0.0382  0.1733  0.1056
 2918UDC     C932096   3.165  10.468   3.783 -0.4131 -0.2207  0.4662
 2918UDC    C1032097   3.036  10.553   3.768  0.3593  0.2917 -1.4460
 2918UDC    C1132098   3.028  10.612   3.627 -0.1959 -0.9169  0.6675
 2919UDC     C132099  10.486  14.589  15.350 -0.5760  0.5167  0.6269
 2919UDC     C232100  10.538  14.694  15.256 -0.1351  0.9259  0.3458
 2919UDC     C332101  10.501  14.838  15.279 -1.1272  0.4363 -0.8050
 2919UDC     C432102  10.576  14.926  15.177 -0.2088 -0.3111 -0.0199
 2919UDC     C532103  10.667  15.032  15.243  1.1536 -0.6579  0.4576
 2919UDC     C632104  10.586  15.131  15.330  1.6928 -0.3589  0.1177
 2919UDC     C732105  10.668  15.230  15.410  0.7676 -0.3002 -0.2252
 2919UDC     C832106  10.587  15.340  15.492  0.2968  0.3662 -0.1389
 2919UDC     C932107  10.456  15.305  15.567  0.8937  0.9388  0.4123
 2919UDC    C1032108  10.441  15.385  15.698  0.4592  0.8474  1.0716
 2919UDC    C1132109  10.312  15.399  15.775 -0.1237 -0.8134  0.9736
 2920UDC     C132110   3.163  19.026   0.322  0.0728  1.2650 -0.2540
 2920UDC     C232111   3.198  19.121   0.208  0.2837 -0.0809  0.9815
 2920UDC     C332112   3.353  19.125   0.184  1.1757  1.0945 -0.3307
 2920UDC     C432113   3.446  19.204   0.277 -0.2236  0.7815  0.1906
 2920UDC     C532114   3.484  19.138   0.409  0.5449 -1.0843 -0.2714
 2920UDC     C632115   3.634  19.102   0.413  0.3210  0.1595  0.0128
 2920UDC     C732116   3.668  19.033   0.286  0.5953 -0.5161  0.3425
 2920UDC     C832117   3.744  18.907   0.289 -0.0723  0.6160 -0.0440
 2920UDC     C932118   3.703  18.828   0.168  0.9229 -0.3521 -0.1817
 2920UDC    C1032119   3.774  18.884   0.046 -0.4316 -0.6432  0.4088
 2920UDC    C1132120   3.917  18.822   0.024  0.6961 -0.0182 -0.4132
 2921UDC     C132121   0.761  10.158  18.544 -0.6530  0.7465 -0.4437
 2921UDC     C232122   0.828  10.289  18.522 -0.0893 -0.9745 -0.7116
 2921UDC     C332123   0.813  10.391  18.647  0.3172 -0.9827  0.8848
 2921UDC     C432124   0.899  10.356  18.770 -0.3561 -0.5218  0.2014
 2921UDC     C532125   0.872  10.451  18.890  0.2050  0.7679 -0.0031
 2921UDC     C632126   0.845  10.370  19.013 -0.8956  0.6551  0.1615
 2921UDC     C732127   0.802  10.231  18.979 -0.9041 -1.0720 -0.0237
 2921UDC     C832128   0.749  10.136  19.094 -0.0212 -1.1403  0.6834
 2921UDC     C932129   0.628  10.052  19.047  0.0628  0.1148  0.1103
 2921UDC    C1032130   0.563   9.942  19.132  0.3671 -0.0939 -0.0700
 2921UDC    C1132131   0.660   9.827  19.164 -0.1086 -1.0821 -0.4024
 2922UDC     C132132  19.033   5.345  18.340  0.3047 -1.1450  0.4782
 2922UDC     C232133  19.131   5.469  18.363 -0.2969 -0.0194 -0.0698
 2922UDC     C332134  19.183   5.481  18.502  0.0224  0.1902  0.1414
 2922UDC     C432135  19.096   5.504  18.628 -0.2300 -0.1280  0.6212
 2922UDC     C532136  19.205   5.548  18.733  0.0364  0.3748  1.8091
 2922UDC     C632137  19.128   5.589  18.859 -0.8089  0.4365 -0.0370
 2922UDC     C732138  19.080   5.468  18.955  0.5728  0.8878  0.1135
 2922UDC     C832139  18.939   5.489  19.006  0.2944  0.5231  0.4345
 2922UDC     C932140  18.874   5.404  19.116 -0.7440 -0.4260  0.8175
 2922UDC    C1032141  18.722   5.383  19.110  0.3443  0.1440  0.3562
 2922UDC    C1132142  18.694   5.276  19.215  0.2858 -0.2664  0.0535
 2923UDC     C132143  18.484   4.028  17.545 -0.4845 -0.2917  0.7327
 2923UDC     C232144  18.566   4.082  17.424  0.1469  0.0992 -0.2621
 2923UDC     C332145  18.509   4.025  17.291 -0.2338  1.2082  0.1955
 2923UDC     C432146  18.590   4.065  17.171  1.3207 -1.1661  0.0361
 2923UDC     C532147  18.642   3.939  17.113  0.1007 -0.9160  0.4760
 2923UDC     C632148  18.553   3.818  17.088  0.8139  0.7621  0.3774
 2923UDC     C732149  18.604   3.694  17.167  1.0086  0.5190  0.1809
 2923UDC     C832150  18.622   3.576  17.065 -0.3464 -0.5563 -0.2931
 2923UDC     C932151  18.710   3.466  17.123 -1.2018  0.1662 -0.2048
 2923UDC    C1032152  18.751   3.361  17.018  1.1976  0.5909  0.8075
 2923UDC    C1132153  18.884   3.296  17.054  0.1871 -0.4411 -0.8427
 2924UDC     C132154   5.391  13.695   7.794 -0.7499  0.3679  0.5756
 2924UDC     C232155   5.309  13.680   7.665 -0.6015 -0.7754  0.5559
 2924UDC     C332156   5.380  13.579   7.567  0.7382 -0.4849  0.5593
 2924UDC     C432157   5.326  13.437   7.571 -1.2962  0.0205 -0.2981
 2924UDC     C532158   5.411  13.336   7.492  0.8673 -0.5289  0.5869
 2924UDC     C632159   5.532  13.276   7.566  0.5218  0.8625 -0.1809
 2924UDC     C732160   5.624  13.175   7.496  0.3945 -0.8137 -0.7607
 2924UDC     C832161   5.728  13.148   7.609  0.0196 -0.9377 -1.2037
 2924UDC     C932162   5.838  13.048   7.568  0.6147  0.0232 -0.3958
 2924UDC    C1032163   5.767  12.951   7.472  0.9938 -0.8854 -0.7183
 2924UDC    C1132164   5.846  12.829   7.433 -0.8922 -1.6594 -0.1994
 2925UDC     C132165  14.269  14.705  18.498 -0.5597  0.3513  0.0806
 2925UDC     C232166  14.315  14.804  18.393 -0.6225 -0.3263 -0.1545
 2925UDC     C332167  14.221  14.918  18.348  0.7545  0.2931  0.0935
 2925UDC     C432168  14.166  14.997  18.463 -0.2638  0.0295 -0.1193
 2925UDC     C532169  14.073  15.108  18.410 -0.2153  0.5282  0.5896
 2925UDC     C632170  13.988  15.195  18.507 -0.0107  0.2155 -1.2150
 2925UDC     C732171  13.854  15.235  18.439  0.0140 -0.4862 -0.3752
 2925UDC     C832172  13.773  15.325  18.539  0.1106  0.4685  0.4579
 2925UDC     C932173  13.638  15.355  18.482  0.1461  1.2818  0.3113
 2925UDC    C1032174  13.546  15.445  18.570 -0.8936 -1.1365 -0.5407
 2925UDC    C1132175  13.611  15.589  18.584  0.1862  0.1305  0.8648
 2926UDC     C132176   8.337  12.772   3.463  0.1415  0.2616 -0.0289
 2926UDC     C232177   8.343  12.652   3.560  0.0710 -0.2041 -0.1857
 2926UDC     C332178   8.334  12.524   3.477 -0.3593  0.7318 -1.4378
 2926UDC     C432179   8.216  12.544   3.384 -0.1689 -0.7241  0.5731
 2926UDC     C532180   8.244  12.467   3.260  0.8098 -0.4293 -0.1661
 2926UDC     C632181   8.362  12.501   3.167 -0.6343 -0.6486 -0.2918
 2926UDC     C732182   8.379  12.633   3.103 -0.1178 -0.3009  0.4555
 2926UDC     C832183   8.272  12.673   2.998 -0.8240 -0.2357 -1.2323
 2926UDC     C932184   8.252  12.820   2.973 -0.2295  0.3563 -1.2456
 2926UDC    C1032185   8.119  12.824   2.899  0.2373 -0.0235 -0.2836
 2926UDC    C1132186   8.143  12.804   2.749 -0.2603  0.7095 -1.1087
 2927UDC     C132187  16.385  15.548   4.377  0.7610 -0.2596  0.2562
 2927UDC     C232188  16.346  15.458   4.256  0.6711 -0.0752 -0.3791
 2927UDC     C332189  16.439  15.329   4.256  0.2185  0.1178  0.1264
 2927UDC     C432190  16.397  15.239   4.135 -1.0454  0.2461 -0.3285
 2927UDC     C532191  16.258  15.188   4.169 -0.1924  0.2134  0.7549
 2927UDC     C632192  16.199  15.068   4.092 -0.8732 -0.5930 -0.0229
 2927UDC     C732193  16.052  15.042   4.104 -0.6702 -0.2807 -0.3858
 2927UDC     C832194  15.979  15.178   4.132  0.3071 -0.0323 -0.3551
 2927UDC     C932195  15.834  15.157   4.158  0.1337  0.9280  0.1577
 2927UDC    C1032196  15.753  15.273   4.101 -0.4480 -0.7099 -0.4191
 2927UDC    C1132197  15.608  15.256   4.153  0.3670 -0.2119 -0.3638
 2928UDC     C132198  10.726  17.022  14.633  0.7668  0.4893 -0.0722
 2928UDC     C232199  10.662  17.127  14.728  0.8179  0.6857  0.1640
 2928UDC     C332200  10.625  17.261  14.670 -0.3716 -0.0510  0.1380
 2928UDC     C432201  10.700  17.309  14.544  0.4453 -0.2154 -0.2121
 2928UDC     C532202  10.610  17.410  14.479 -0.3036  0.4128  1.1625
 2928UDC     C632203  10.679  17.466  14.352  0.6581  0.6590 -0.5683
 2928UDC     C732204  10.632  17.606  14.304 -0.5121 -0.6435 -0.3585
 2928UDC     C832205  10.661  17.718  14.405  0.3529 -0.2857 -0.1116
 2928UDC     C932206  10.811  17.722  14.435 -0.1132  0.6369 -0.5220
 2928UDC    C1032207  10.855  17.838  14.526  0.4033  0.1558  0.3008
 2928UDC    C1132208  10.885  17.964  14.440  0.4400  0.5960 -0.6443
 2929UDC     C132209   8.221   5.525   8.192 -0.6484  1.5517  1.3501
 2929UDC     C232210   8.275   5.556   8.330  0.5557 -0.4870 -0.6670
 2929UDC     C332211   8.176   5.657   8.412 -0.7422  0.9246  0.2414
 2929UDC     C432212   8.035   5.596   8.471 -1.3158 -0.5203  0.0210
 2929UDC     C532213   7.921   5.639   8.373 -1.0847  0.1496 -0.4102
 2929UDC     C632214   7.782   5.594   8.366  0.6729  0.8180  0.3558
 2929UDC     C732215   7.681   5.687   8.299 -0.0663 -0.6601 -0.5245
 2929UDC     C832216   7.553   5.611   8.255  1.0832 -0.5573  0.3712
 2929UDC     C932217   7.492   5.525   8.366 -1.5052 -0.3951  0.1065
 2929UDC    C1032218   7.352   5.488   8.327  0.6192 -0.4618  0.4704
 2929UDC    C1132219   7.278   5.400   8.429 -1.0643 -1.2176 -1.3432
 2930UDC     C132220   7.335   3.925   3.759 -2.1738 -0.2560  0.4282
 2930UDC     C232221   7.416   3.956   3.888 -0.0896  0.6733  0.9148
 2930UDC     C332222   7.497   3.835   3.942  0.1236  0.8446 -0.1971
 2930UDC     C432223   7.410   3.738   4.025 -0.2302 -0.3163 -0.8687
 2930UDC     C532224   7.481   3.607   4.068 -0.0002 -0.6083  0.1232
 2930UDC     C632225   7.593   3.611   4.169 -0.5844  0.0630 -0.0569
 2930UDC     C732226   7.617   3.466   4.224 -0.0327 -0.3279  0.7813
 2930UDC     C832227   7.724   3.465   4.330 -0.2271  0.3721  0.4019
 2930UDC     C932228   7.697   3.588   4.417  0.5101  0.0023 -0.4714
 2930UDC    C1032229   7.767   3.560   4.553 -0.0883 -0.3252 -0.7999
 2930UDC    C1132230   7.742   3.628   4.689 -0.2467 -0.0328  0.4767
 2931UDC     C132231  16.751   3.897  16.987  0.7281  0.4399  0.9509
 2931UDC     C232232  16.898   3.881  17.006 -0.4689  0.6558  0.1073
 2931UDC     C332233  16.955   4.020  17.072  0.2312  0.7653  0.4797
 2931UDC     C432234  17.098   4.059  17.082 -0.1856  0.1518 -1.6504
 2931UDC     C532235  17.133   4.186  17.170 -0.5492  0.7100 -0.5846
 2931UDC     C632236  17.275   4.218  17.162 -0.1011  0.1415 -0.8876
 2931UDC     C732237  17.353   4.132  17.254 -0.7225  0.2371 -0.6716
 2931UDC     C832238  17.499   4.153  17.210 -0.2184  0.0475 -0.4230
 2931UDC     C932239  17.617   4.059  17.260  0.4186 -0.3261  0.8390
 2931UDC    C1032240  17.755   4.133  17.280 -0.1097 -0.6720 -1.7334
 2931UDC    C1132241  17.780   4.233  17.401  0.2799 -0.0606  0.5323
 2932UDC     C132242   8.552  15.987   1.166  0.2814  0.3214 -0.6931
 2932UDC     C232243   8.588  16.090   1.274 -0.7139 -0.6781 -0.3807
 2932UDC     C332244   8.667  16.020   1.388 -0.8073  0.2359 -0.2713
 2932UDC     C432245   8.651  16.098   1.526  0.5227  1.7831 -0.3341
 2932UDC     C532246   8.715  16.234   1.553 -0.4429  0.4268  0.5056
 2932UDC     C632247   8.749  16.259   1.698  1.2017  0.3847 -0.5686
 2932UDC     C732248   8.630  16.239   1.791 -0.1438  0.5064 -0.7123
 2932UDC     C832249   8.689  16.223   1.932  0.4247  1.0251 -0.0358
 2932UDC     C932250   8.595  16.181   2.047 -0.6713 -0.0712  1.2998
 2932UDC    C1032251   8.558  16.031   2.050  0.4856  0.6028  0.0535
 2932UDC    C1132252   8.669  15.937   2.079  0.0331  0.6960 -0.5329
 2933UDC     C132253   1.232  14.840   7.176  1.5751 -0.1430  0.0297
 2933UDC     C232254   1.356  14.931   7.180 -0.8229 -0.0692 -0.5932
 2933UDC     C332255   1.311  15.046   7.269 -0.1354 -1.1811  0.2567
 2933UDC     C432256   1.172  15.091   7.215  0.2102  1.4086 -0.4455
 2933UDC     C532257   1.182  15.187   7.087  0.1408  0.8125 -0.3329
 2933UDC     C632258   1.234  15.145   6.952 -0.0369  0.6971  0.5634
 2933UDC     C732259   1.193  15.251   6.843  0.0428  0.2055 -0.7517
 2933UDC     C832260   1.229  15.392   6.888 -0.8068 -1.2972 -0.5587
 2933UDC     C932261   1.201  15.517   6.808 -1.3721 -0.0913 -0.1658
 2933UDC    C1032262   1.311  15.529   6.699 -0.0982  0.3137  1.0542
 2933UDC    C1132263   1.273  15.519   6.550  0.2853 -0.0572 -0.3554
 2934UDC     C132264   1.896  18.578  13.508  0.7713  0.1731 -0.1852
 2934UDC     C232265   1.922  18.441  13.456 -0.0383  1.1249  1.3638
 2934UDC     C332266   2.026  18.352  13.523 -0.3732 -0.1295 -0.0186
 2934UDC     C432267   2.105  18.259  13.433  0.2115  0.3075  0.2007
 2934UDC     C532268   2.184  18.343  13.334  0.0542 -0.6012  0.1902
 2934UDC     C632269   2.203  18.289  13.186 -0.3168 -0.7537 -0.4388
 2934UDC     C732270   2.088  18.307  13.077  0.3874 -0.4497 -1.6166
 2934UDC     C832271   2.110  18.240  12.941  0.3386  1.0662 -0.3138
 2934UDC     C932272   2.033  18.099  12.932  0.3299 -0.5219  1.2906
 2934UDC    C1032273   2.065  18.019  12.800  0.7614  0.8980 -0.3769
 2934UDC    C1132274   2.199  17.946  12.815 -0.6868 -0.0911  0.2964
 2935UDC     C132275   6.640   0.347   4.730  0.2000  0.2769  0.1155
 2935UDC     C232276   6.731   0.226   4.767 -0.4011 -0.3217  0.0532
 2935UDC     C332277   6.790   0.243   4.909  0.0320 -0.0707  0.1317
 2935UDC     C432278   6.692   0.186   5.017  0.6290  0.1949 -0.2790
 2935UDC     C532279   6.643   0.036   5.002 -0.0751  0.0349  0.6979
 2935UDC     C632280   6.765  -0.056   5.027 -0.3722  0.6604  1.2628
 2935UDC     C732281   6.774  -0.199   4.956  0.7908 -0.3757 -0.2428
 2935UDC     C832282   6.658  -0.293   4.974  0.5381  0.1353  0.1748
 2935UDC     C932283   6.709  -0.432   4.959 -0.6098  0.2465  1.0843
 2935UDC    C1032284   6.685  -0.496   4.821  0.1747  0.8153  0.7154
 2935UDC    C1132285   6.552  -0.476   4.749 -0.1631  0.0222 -1.3253
 2936UDC     C132286  18.633   7.989  11.681  0.1061 -0.5512 -1.1183
 2936UDC     C232287  18.697   8.114  11.767  0.1973  0.7828 -0.7729
 2936UDC     C332288  18.769   8.054  11.885  0.4864 -0.9281  0.6625
 2936UDC     C432289  18.858   8.143  11.969 -0.4996 -0.8922  0.4889
 2936UDC     C532290  19.015   8.159  11.943 -0.3723  0.5066 -0.2861
 2936UDC     C632291  19.082   8.239  12.059 -0.4657  0.1427  0.7469
 2936UDC     C732292  19.229   8.279  12.046 -0.1232 -1.1060  0.9898
 2936UDC     C832293  19.293   8.272  12.185 -1.4064  0.1028 -0.5765
 2936UDC     C932294  19.329   8.132  12.242 -0.2180 -0.1608  0.7695
 2936UDC    C1032295  19.424   8.157  12.363 -0.2428 -0.0985  0.4223
 2936UDC    C1132296  19.515   8.040  12.401 -0.2242  0.1772  0.3563
 2937UDC     C132297  17.183   3.120  16.728 -1.0442 -0.8581  0.3074
 2937UDC     C232298  17.284   3.183  16.822 -0.0002 -0.3727 -0.6735
 2937UDC     C332299  17.337   3.319  16.772  0.4658 -0.6256 -0.0460
 2937UDC     C432300  17.487   3.305  16.811  1.1199 -1.0657 -0.8594
 2937UDC     C532301  17.566   3.412  16.746 -0.0742 -1.0636 -0.0355
 2937UDC     C632302  17.706   3.392  16.798 -0.8533 -0.3199 -0.8892
 2937UDC     C732303  17.771   3.255  16.772 -0.6703  0.1831  0.1918
 2937UDC     C832304  17.897   3.216  16.860 -0.2875  1.2960 -0.1824
 2937UDC     C932305  17.989   3.329  16.897 -0.4989 -1.2950  0.3094
 2937UDC    C1032306  18.077   3.366  16.779  1.3384 -0.4788  0.5734
 2937UDC    C1132307  18.175   3.475  16.834  0.3646  0.6719  0.1413
 2938UDC     C132308  13.751  13.411   1.471  0.1416 -0.2840  1.2215
 2938UDC     C232309  13.618  13.482   1.510 -0.7070  0.0566 -0.2905
 2938UDC     C332310  13.482  13.422   1.512 -0.4603  0.6764 -0.4545
 2938UDC     C432311  13.381  13.506   1.595 -0.9806  0.7526  0.1265
 2938UDC     C532312  13.260  13.553   1.516  0.2591  0.2276  0.2001
 2938UDC     C632313  13.175  13.675   1.558  0.4489 -0.1545 -0.0897
 2938UDC     C732314  13.044  13.686   1.486  0.4784 -1.1038  0.3355
 2938UDC     C832315  12.954  13.788   1.556 -0.6352 -0.0751  0.4644
 2938UDC     C932316  12.812  13.763   1.504 -0.1935 -1.6083 -1.0187
 2938UDC    C1032317  12.706  13.800   1.605 -0.1153  0.2086 -0.3567
 2938UDC    C1132318  12.586  13.706   1.599  0.4477  0.7785  0.4424
 2939UDC     C132319   7.665   8.411   9.156  0.7524 -0.5079 -0.2019
 2939UDC     C232320   7.801   8.386   9.096  0.1870 -0.9040 -0.3469
 2939UDC     C332321   7.831   8.526   9.037  0.0632  0.5151  0.9667
 2939UDC     C432322   7.980   8.534   8.994 -0.5204 -0.3248 -0.8041
 2939UDC     C532323   8.018   8.665   8.920 -1.9228  0.3488 -0.6025
 2939UDC     C632324   8.162   8.657   8.842  0.4914 -0.2893 -0.8100
 2939UDC     C732325   8.188   8.770   8.739  0.4463  0.9446  0.3934
 2939UDC     C832326   8.055   8.783   8.667  0.0476 -0.2666  0.5411
 2939UDC     C932327   8.057   8.910   8.577 -1.5093  0.0965 -0.0693
 2939UDC    C1032328   8.158   8.930   8.458  0.7815  0.3912  0.4173
 2939UDC    C1132329   8.116   8.840   8.337 -0.1860 -0.2021  0.3202
 2940UDC     C132330  17.144   3.543   4.593 -0.1166 -1.5011 -0.5100
 2940UDC     C232331  17.104   3.543   4.446  0.2957  0.3055  0.2156
 2940UDC     C332332  16.992   3.644   4.411 -0.3936 -0.2094  0.0144
 2940UDC     C432333  16.949   3.652   4.260  0.0326 -0.4010  0.2366
 2940UDC     C532334  16.908   3.507   4.222  0.4074 -0.4631  0.8218
 2940UDC     C632335  16.755   3.512   4.177 -0.2930  0.6581  0.5198
 2940UDC     C732336  16.647   3.575   4.269  0.5492  0.8844  0.0289
 2940UDC     C832337  16.634   3.532   4.415  0.6966  0.0162 -0.9041
 2940UDC     C932338  16.557   3.652   4.495  0.0666 -0.1140  0.0061
 2940UDC    C1032339  16.416   3.649   4.441  0.6475  0.2341 -0.7941
 2940UDC    C1132340  16.304   3.743   4.500  0.6689  0.6925  0.0981
 2941UDC     C132341  17.394  12.615   7.357  0.1688 -0.5685 -1.0094
 2941UDC     C232342  17.437  12.762   7.336  0.5646  0.1067  0.2376
 2941UDC     C332343  17.522  12.827   7.452 -0.3015 -0.4237  0.1796
 2941UDC     C432344  17.461  12.828   7.590 -0.6609 -0.8247 -0.1001
 2941UDC     C532345  17.503  12.949   7.670 -1.3158 -0.1501  0.8864
 2941UDC     C632346  17.435  12.967   7.799  0.6728  1.1186 -0.2828
 2941UDC     C732347  17.440  13.121   7.811 -0.5505  0.4677 -0.6872
 2941UDC     C832348  17.398  13.207   7.686 -0.2317  0.0919 -0.1225
 2941UDC     C932349  17.259  13.187   7.621 -0.3012 -1.4918 -0.1111
 2941UDC    C1032350  17.161  13.306   7.642  0.4867  0.4076 -0.0957
 2941UDC    C1132351  17.045  13.294   7.541 -0.1686  0.6373  0.5067
 2942UDC     C132352  12.759  17.515  10.912  0.1189  0.7214 -0.0703
 2942UDC     C232353  12.862  17.631  10.916  0.6199 -0.0674 -0.2108
 2942UDC     C332354  12.876  17.704  10.784  0.1082 -0.1169  0.6260
 2942UDC     C432355  12.756  17.768  10.706 -0.4884  0.4011  0.4367
 2942UDC     C532356  12.749  17.792  10.557 -0.0153 -1.2428  1.0881
 2942UDC     C632357  12.645  17.899  10.522 -0.0567  0.4618  0.1635
 2942UDC     C732358  12.521  17.880  10.606  0.0642 -0.1271  0.8108
 2942UDC     C832359  12.401  17.967  10.562 -0.6392  0.2207  0.0278
 2942UDC     C932360  12.352  18.095  10.649  0.4512 -0.6085  0.6562
 2942UDC    C1032361  12.329  18.056  10.794  0.7093  1.5025  0.3196
 2942UDC    C1132362  12.256  18.160  10.878  1.0494 -0.3860 -0.3866
 2943UDC     C132363  19.485  18.540  18.137 -0.1725 -0.8791 -0.6920
 2943UDC     C232364  19.404  18.579  18.263 -0.5762  0.1143 -0.5111
 2943UDC     C332365  19.330  18.449  18.314 -0.6755 -1.3339  0.6656
 2943UDC     C432366  19.202  18.485  18.384 -0.2470  0.3313 -0.5194
 2943UDC     C532367  19.085  18.396  18.354  0.6495 -0.0509 -0.6523
 2943UDC     C632368  18.950  18.452  18.371 -1.0497 -0.2063  0.0871
 2943UDC     C732369  18.852  18.335  18.342  0.0051 -0.5880 -0.3896
 2943UDC     C832370  18.713  18.351  18.418 -1.0138  0.2101  0.5786
 2943UDC     C932371  18.628  18.230  18.420  0.0198 -0.3594  0.5522
 2943UDC    C1032372  18.522  18.250  18.527  0.9661 -0.2582  0.0409
 2943UDC    C1132373  18.380  18.257  18.464 -0.1004  0.0462  0.7830
 2944UDC     C132374   7.695   2.805   1.711  0.3438  1.5226 -0.0446
 2944UDC     C232375   7.562   2.761   1.772 -0.2466 -0.0058 -0.4065
 2944UDC     C332376   7.506   2.648   1.684  0.3826  0.7860  0.5377
 2944UDC     C432377   7.366   2.598   1.721  0.8535 -0.4448  0.1696
 2944UDC     C532378   7.313   2.477   1.644  0.2968  0.6469 -0.8224
 2944UDC     C632379   7.361   2.353   1.713 -0.1190  0.3918  0.5033
 2944UDC     C732380   7.508   2.314   1.749  1.0271 -0.3379  0.3982
 2944UDC     C832381   7.540   2.309   1.899 -0.4143 -0.1825 -0.0795
 2944UDC     C932382   7.666   2.219   1.934 -0.0562 -0.6549  0.7992
 2944UDC    C1032383   7.800   2.314   1.936  0.8457  0.5567 -0.8372
 2944UDC    C1132384   7.821   2.419   2.047 -0.2245  0.2108 -0.2444
 2945UDC     C132385   1.939   2.950   3.582 -0.1520 -0.3883  0.1008
 2945UDC     C232386   2.041   3.018   3.491  1.2141  0.0084 -0.8755
 2945UDC     C332387   2.017   2.999   3.344 -0.5955 -0.2751 -0.0267
 2945UDC     C432388   2.095   3.084   3.247  0.3722 -1.3021 -0.3726
 2945UDC     C532389   2.245   3.059   3.255 -1.1033 -0.0315  0.8514
 2945UDC     C632390   2.301   2.920   3.219  0.3978 -0.3285 -0.4711
 2945UDC     C732391   2.462   2.910   3.225 -0.4517  0.9252  0.6933
 2945UDC     C832392   2.524   2.971   3.353  0.8763  0.3751 -1.3279
 2945UDC     C932393   2.678   2.980   3.352  0.4052  0.6599  1.2365
 2945UDC    C1032394   2.758   2.875   3.436 -0.3697 -0.4322  1.0616
 2945UDC    C1132395   2.885   2.804   3.377  0.2329  0.0727 -0.2691
 2946UDC     C132396   1.811  11.896  11.876  0.1504 -0.1627  0.3059
 2946UDC     C232397   1.745  11.897  11.740 -0.0343 -1.3674 -0.0222
 2946UDC     C332398   1.637  11.792  11.743 -1.2133 -1.4260 -0.1869
 2946UDC     C432399   1.555  11.779  11.618  0.0447  0.2192 -0.3987
 2946UDC     C532400   1.451  11.668  11.601 -0.1790  0.8449 -1.2034
 2946UDC     C632401   1.507  11.524  11.591  0.1130  0.2914 -0.2140
 2946UDC     C732402   1.403  11.410  11.613 -0.8724  0.6463 -1.1056
 2946UDC     C832403   1.443  11.265  11.611 -1.0470  0.6970  0.1190
 2946UDC     C932404   1.326  11.165  11.635  0.6426 -0.6635  0.6485
 2946UDC    C1032405   1.268  11.186  11.773  0.5413  0.0662  0.9288
 2946UDC    C1132406   1.144  11.099  11.820 -0.9531  0.4850 -1.3000
 2947UDC     C132407  16.241  18.099  12.822  0.3377 -0.1867 -0.6863
 2947UDC     C232408  16.174  18.111  12.685 -0.1848  0.6856 -0.4921
 2947UDC     C332409  16.291  18.122  12.580 -0.0391  1.3118  0.2810
 2947UDC     C432410  16.381  18.250  12.596  0.5943 -0.3777  0.7054
 2947UDC     C532411  16.467  18.279  12.467 -0.6423 -0.4024  0.5356
 2947UDC     C632412  16.447  18.429  12.429 -0.4204 -0.4290 -0.3934
 2947UDC     C732413  16.307  18.443  12.362 -0.8335  0.6643  0.2816
 2947UDC     C832414  16.293  18.334  12.251 -0.5652  0.3155 -0.3968
 2947UDC     C932415  16.150  18.341  12.206  0.8850 -0.5821  0.1842
 2947UDC    C1032416  16.043  18.306  12.308  0.1903  0.5038 -0.7059
 2947UDC    C1132417  15.909  18.339  12.247  0.3155  0.8608  0.4044
 2948UDC     C132418   5.294   1.992   8.195 -0.1375  0.2564  1.0433
 2948UDC     C232419   5.167   1.907   8.188  0.6809  0.7605  0.3141
 2948UDC     C332420   5.047   1.968   8.261  0.6039  0.9391  0.3633
 2948UDC     C432421   4.953   2.054   8.170  0.0036  0.9967 -0.2096
 2948UDC     C532422   4.856   1.964   8.084 -1.6181  0.2730 -1.2632
 2948UDC     C632423   4.757   2.052   8.012  0.4772  0.8213  0.3358
 2948UDC     C732424   4.634   2.119   8.082  0.0872  2.0952  0.6396
 2948UDC     C832425   4.542   1.998   8.105  0.2658 -0.4325 -1.2292
 2948UDC     C932426   4.402   2.028   8.163 -0.3958 -0.4222 -0.1697
 2948UDC    C1032427   4.286   2.057   8.065 -0.2439 -0.3052  0.5177
 2948UDC    C1132428   4.276   1.968   7.940  0.2080  0.1582 -0.9941
 2949UDC     C132429   0.314  11.494   2.600 -1.1000 -0.4624  0.8892
 2949UDC     C232430   0.433  11.435   2.529  0.5331  0.8255 -0.0406
 2949UDC     C332431   0.478  11.289   2.562 -0.1058  0.0672 -0.6165
 2949UDC     C432432   0.596  11.295   2.649 -0.0134 -0.3439 -0.3009
 2949UDC     C532433   0.724  11.211   2.615  0.9585 -0.1992  0.7770
 2949UDC     C632434   0.683  11.062   2.614 -1.0288  0.0745 -0.0587
 2949UDC     C732435   0.793  10.962   2.578 -0.8160 -0.1048 -0.2208
 2949UDC     C832436   0.816  10.956   2.421  0.0439  0.7699 -1.1325
 2949UDC     C932437   0.688  10.971   2.330 -0.6556 -0.6412 -0.5379
 2949UDC    C1032438   0.711  11.009   2.184 -0.6819 -0.1060  0.4565
 2949UDC    C1132439   0.745  10.892   2.095 -1.8948  0.7074 -1.2442
 2950UDC     C132440  14.691  17.006  19.054 -0.2077  0.2008 -0.5355
 2950UDC     C232441  14.600  17.134  19.084  0.8927 -1.0142  0.1168
 2950UDC     C332442  14.632  17.209  19.219 -0.0191  1.4109 -0.2647
 2950UDC     C432443  14.527  17.301  19.290 -1.1233  1.3281 -0.1686
 2950UDC     C532444  14.581  17.310  19.434 -1.1698  0.4285 -0.2155
 2950UDC     C632445  14.518  17.196  19.513 -0.1502  0.4971 -0.3382
 2950UDC     C732446  14.532  17.180  19.665  0.4822  0.7138  0.2492
 2950UDC     C832447  14.458  17.057  19.726 -0.2170  0.5221 -0.2394
 2950UDC     C932448  14.524  17.009  19.860 -0.0067 -0.4614 -1.4288
 2950UDC    C1032449  14.508  17.123  19.965  0.4709 -0.0559 -0.1415
 2950UDC    C1132450  14.371  17.177  19.994 -0.1661  0.2997 -0.3682
 2951UDC     C132451   5.174  13.035  17.830  0.0120  0.5377 -0.6373
 2951UDC     C232452   5.207  13.183  17.816 -0.1048  0.2508  0.5151
 2951UDC     C332453   5.286  13.210  17.685 -0.4647  0.0197 -0.1824
 2951UDC     C432454   5.230  13.157  17.553 -0.8306  0.5601  0.1463
 2951UDC     C532455   5.300  13.237  17.443  0.5035  0.2446  0.2696
 2951UDC     C632456   5.248  13.207  17.303  0.3199  0.5261  0.4092
 2951UDC     C732457   5.115  13.250  17.242  0.0102 -0.1811 -0.1253
 2951UDC     C832458   5.079  13.212  17.101 -0.1181  0.3924  0.3998
 2951UDC     C932459   5.181  13.265  16.995  0.4818  1.1054 -0.6612
 2951UDC    C1032460   5.202  13.186  16.863  0.3264  0.3824 -0.0184
 2951UDC    C1132461   5.299  13.062  16.861 -1.0257  0.6850  0.3265
 2952UDC     C132462   6.500  12.664  14.938 -0.4088  0.3492 -0.5991
 2952UDC     C232463   6.648  12.645  14.991  0.4128  0.5478 -1.2542
 2952UDC     C332464   6.725  12.547  14.906 -0.2969 -1.2176 -0.0664
 2952UDC     C432465   6.677  12.403  14.905  0.9744  0.0037  1.4781
 2952UDC     C532466   6.728  12.327  14.778  0.8721 -0.5078 -0.6401
 2952UDC     C632467   6.659  12.369  14.650  0.9661 -0.7818 -0.6611
 2952UDC     C732468   6.508  12.329  14.643 -0.4287  0.0367  0.1256
 2952UDC     C832469   6.430  12.398  14.530 -0.8025 -0.0246 -0.6530
 2952UDC     C932470   6.497  12.394  14.389  0.6381  0.3851 -0.2960
 2952UDC    C1032471   6.405  12.493  14.310 -0.4227 -0.3977 -1.5558
 2952UDC    C1132472   6.254  12.483  14.348 -0.3560 -0.4687 -0.6969
 2953UDC     C132473   2.041  17.268   9.811  0.6642 -0.3024 -0.3186
 2953UDC     C232474   2.100  17.388   9.881  0.0700 -0.3991  0.9622
 2953UDC     C332475   2.072  17.504   9.780  0.3126 -0.1166  0.1157
 2953UDC     C432476   2.158  17.625   9.824 -0.6742 -0.1174  0.7231
 2953UDC     C532477   2.107  17.678   9.957 -0.4229  0.3377 -0.0647
 2953UDC     C632478   2.186  17.796  10.008  0.4880  0.0923 -0.9459
 2953UDC     C732479   2.115  17.936  10.022 -0.3135 -0.0358  0.7278
 2953UDC     C832480   2.052  17.937  10.157 -1.2984  0.1491 -1.3393
 2953UDC     C932481   2.150  17.889  10.276 -0.3388 -0.1902  1.3828
 2953UDC    C1032482   2.237  18.001  10.327 -0.6358 -0.4387 -1.0183
 2953UDC    C1132483   2.148  18.116  10.381 -0.3610 -0.3319 -0.2667
 2954UDC     C132484  12.085   8.731  15.441  0.0921  0.1466  0.0776
 2954UDC     C232485  12.012   8.598  15.452  0.6624  0.1916  0.5640
 2954UDC     C332486  12.095   8.504  15.544  0.6633 -0.5338  0.1124
 2954UDC     C432487  12.049   8.359  15.532 -0.2845  0.3808  0.1978
 2954UDC     C532488  11.900   8.341  15.568  0.5870  0.3397 -0.4618
 2954UDC     C632489  11.861   8.200  15.623  0.1471  0.3924 -0.1945
 2954UDC     C732490  11.940   8.122  15.729 -1.2102 -0.8898  1.1452
 2954UDC     C832491  11.884   7.996  15.794  0.3780  0.8321 -0.2361
 2954UDC     C932492  11.964   7.904  15.887 -0.8230  1.2813 -0.2451
 2954UDC    C1032493  12.071   7.855  15.793 -0.5448 -0.8552  1.2657
 2954UDC    C1132494  12.017   7.764  15.680 -0.7026 -0.7913 -0.5578
 2955UDC     C132495   0.845   5.638   7.052 -0.9411 -0.3376 -0.6262
 2955UDC     C232496   0.930   5.549   6.955 -0.4998 -0.0969  0.2275
 2955UDC     C332497   1.002   5.452   7.050  0.5548  0.3731  0.5197
 2955UDC     C432498   0.973   5.305   7.010 -1.3702  0.1852 -1.0163
 2955UDC     C532499   0.829   5.273   6.988  0.0360  0.9422 -0.7155
 2955UDC     C632500   0.820   5.128   6.933  0.8204  0.3119 -0.2535
 2955UDC     C732501   0.681   5.059   6.958 -0.4392  0.3123 -1.3026
 2955UDC     C832502   0.639   4.939   6.863  0.2100 -0.9260  0.0813
 2955UDC     C932503   0.517   4.866   6.918 -0.2060 -0.5202 -0.9222
 2955UDC    C1032504   0.531   4.788   7.049  0.4330 -0.1445 -0.2492
 2955UDC    C1132505   0.381   4.747   7.077  0.1778  0.3345  0.2775
 2956UDC     C132506  11.031  14.864  13.288  0.8573  0.4432 -0.3406
 2956UDC     C232507  11.010  15.013  13.280  0.1849  0.7818  0.0259
 2956UDC     C332508  10.899  15.057  13.382 -0.1488  0.3912 -0.6276
 2956UDC     C432509  10.953  15.022  13.523 -0.7261 -0.6364  0.5962
 2956UDC     C532510  11.012  15.140  13.600 -0.1756  0.8361  0.2794
 2956UDC     C632511  11.078  15.111  13.734  0.4967  0.2296  0.3644
 2956UDC     C732512  11.080  15.211  13.847  0.9523  0.1463 -0.6523
 2956UDC     C832513  11.205  15.301  13.850  0.1805  0.5969 -0.5753
 2956UDC     C932514  11.218  15.398  13.968  1.4785  0.0830 -0.3957
 2956UDC    C1032515  11.242  15.542  13.940  0.0905  0.0240  0.3644
 2956UDC    C1132516  11.124  15.618  13.882 -0.3174 -0.9184  0.3027
 2957UDC     C132517  13.888   0.414  10.108  0.0648  0.5354 -0.2138
 2957UDC     C232518  14.016   0.325  10.095  0.1182 -0.6717 -0.0125
 2957UDC     C332519  14.128   0.416  10.133  0.1846 -0.2387 -0.8079
 2957UDC     C432520  14.173   0.533  10.031 -0.4576  0.7960  0.1539
 2957UDC     C532521  14.091   0.663  10.035  0.2294 -0.5136 -0.7153
 2957UDC     C632522  14.135   0.781   9.953  0.1196 -0.0924  0.8203
 2957UDC     C732523  14.073   0.914  10.001  0.5832  0.2064  0.2626
 2957UDC     C832524  14.121   0.987  10.121  0.3900  1.3578 -0.9564
 2957UDC     C932525  14.071   1.130  10.136  0.8353  0.1985 -0.1712
 2957UDC    C1032526  14.117   1.191  10.274 -0.1281  0.4049  0.0135
 2957UDC    C1132527  14.106   1.341  10.261  0.0712  0.2645 -0.7698
 2958UDC     C132528   5.942  12.725   6.304 -0.0802 -0.4613  0.3797
 2958UDC     C232529   5.921  12.878   6.326  1.1107 -0.4144 -0.5763
 2958UDC     C332530   5.913  12.962   6.196 -0.1627 -0.2234  0.0840
 2958UDC     C432531   5.784  13.042   6.182  0.8359 -0.3112 -0.2312
 2958UDC     C532532   5.667  12.944   6.204 -0.7742 -0.0063 -0.6683
 2958UDC     C632533   5.677  12.832   6.101  0.9248  1.0993 -0.1374
 2958UDC     C732534   5.585  12.714   6.147 -0.2852  0.1876 -0.3033
 2958UDC     C832535   5.550  12.607   6.048 -1.3919  0.4873 -0.7162
 2958UDC     C932536   5.454  12.497   6.096  1.1891 -0.3423 -0.0258
 2958UDC    C1032537   5.514  12.359   6.085  0.6331  0.1545 -0.1286
 2958UDC    C1132538   5.398  12.260   6.132 -0.4685 -0.3241  0.2266
 2959UDC     C132539   6.180   9.863  15.758  0.5082 -0.3086 -0.6554
 2959UDC     C232540   6.060   9.792  15.833 -0.0571  0.1908  0.5491
 2959UDC     C332541   5.947   9.867  15.906  1.3631 -0.1671  0.1945
 2959UDC     C432542   5.833   9.912  15.814  0.5119 -0.4814 -0.0557
 2959UDC     C532543   5.872  10.032  15.726  0.5058 -0.0639  0.2891
 2959UDC     C632544   5.753  10.060  15.631 -1.7679 -0.3264  0.3737
 2959UDC     C732545   5.772  10.191  15.553  0.6510  0.2030  0.8970
 2959UDC     C832546   5.760  10.198  15.394 -0.8262  0.4673 -0.5010
 2959UDC     C932547   5.844  10.097  15.315 -1.8653 -0.0743 -0.0821
 2959UDC    C1032548   5.808  10.127  15.169 -0.2764 -0.1358  0.3144
 2959UDC    C1132549   5.915  10.057  15.073 -0.0660 -0.7358  0.4725
 2960UDC     C132550  19.903   8.013  18.744  0.3773  0.2466  0.0311
 2960UDC     C232551  19.999   8.032  18.622  0.1460 -0.3888  0.7468
 2960UDC     C332552  20.092   7.909  18.622 -1.0009  0.3177  0.1369
 2960UDC     C432553  20.178   7.874  18.741  0.4204  1.0141 -0.1451
 2960UDC     C532554  20.283   7.773  18.698  0.1508 -0.2340  0.0975
 2960UDC     C632555  20.355   7.710  18.820 -0.3485  0.8258 -0.8942
 2960UDC     C732556  20.279   7.611  18.906  0.4315 -0.1538 -0.3551
 2960UDC     C832557  20.381   7.533  18.993  0.0430  0.4687  0.2859
 2960UDC     C932558  20.317   7.418  19.065  0.2122 -0.1484  0.9562
 2960UDC    C1032559  20.397   7.296  19.122 -0.0355  0.1051 -0.4435
 2960UDC    C1132560  20.482   7.246  19.000  0.7208  0.6158  1.3045
 2961UDC     C132561  12.394  18.688  10.753  0.0487 -0.1020 -0.2174
 2961UDC     C232562  12.419  18.839  10.736  0.2359  0.3846  1.0322
 2961UDC     C332563  12.308  18.886  10.636 -0.7165  0.2084  0.1627
 2961UDC     C432564  12.291  19.037  10.649  0.1592  0.1371  0.1360
 2961UDC     C532565  12.148  19.082  10.612  0.5807 -0.0053  1.1963
 2961UDC     C632566  12.146  19.237  10.595  0.9980  0.4950 -0.4959
 2961UDC     C732567  12.217  19.291  10.720 -0.3175 -0.3318  0.4818
 2961UDC     C832568  12.251  19.442  10.737 -0.5146  0.6064  0.4775
 2961UDC     C932569  12.149  19.527  10.811  0.3498  0.0616  0.7874
 2961UDC    C1032570  12.206  19.672  10.804 -1.5026  0.1310  0.1686
 2961UDC    C1132571  12.343  19.687  10.871  0.3995  0.0455 -0.3604
 2962UDC     C132572  13.653   9.807  15.967 -0.6187 -0.4885 -0.0512
 2962UDC     C232573  13.670   9.691  16.066  0.5529  1.0566  0.8792
 2962UDC     C332574  13.535   9.665  16.137  1.1733 -0.4898 -0.6501
 2962UDC     C432575  13.529   9.745  16.275  0.8509  1.1059  0.3669
 2962UDC     C532576  13.412   9.755  16.371  0.3336  0.5831 -0.3935
 2962UDC     C632577  13.434   9.731  16.522  1.1085  0.5354 -0.1170
 2962UDC     C732578  13.309   9.767  16.607 -0.1401  0.8880  0.4375
 2962UDC     C832579  13.183   9.673  16.602 -0.8902 -0.4882  0.5503
 2962UDC     C932580  13.055   9.733  16.663  0.7874 -0.6658 -0.1394
 2962UDC    C1032581  13.072   9.761  16.812  0.3568 -0.1329  0.2241
 2962UDC    C1132582  12.934   9.775  16.892 -1.5166  0.1685 -0.0703
 2963UDC     C132583   0.635  10.857  18.472  0.6746 -0.0337  0.6031
 2963UDC     C232584   0.690  10.826  18.334 -0.4050 -0.2804  0.2142
 2963UDC     C332585   0.693  10.676  18.302 -0.8174 -0.3358 -0.5546
 2963UDC     C432586   0.752  10.648  18.162  0.1350  0.2477 -1.7535
 2963UDC     C532587   0.682  10.722  18.052  0.8517 -1.0317  0.6288
 2963UDC     C632588   0.532  10.724  18.021 -0.2307 -0.3145  0.0717
 2963UDC     C732589   0.446  10.594  17.997  0.2514 -0.6787  1.0772
 2963UDC     C832590   0.504  10.491  17.897 -0.0745 -0.0472 -0.4006
 2963UDC     C932591   0.563  10.544  17.766  0.3629  1.2676  1.0162
 2963UDC    C1032592   0.449  10.626  17.698  0.5656 -0.0040  0.3893
 2963UDC    C1132593   0.495  10.737  17.600  1.4538  0.4492 -0.6172
 2964UDC     C132594   6.990   2.740   2.507  0.4854  0.4443 -0.3219
 2964UDC     C232595   7.091   2.724   2.624  0.7471 -1.3282 -0.9066
 2964UDC     C332596   7.215   2.662   2.566 -0.1624 -0.1324  0.1624
 2964UDC     C432597   7.317   2.631   2.677  0.4854 -0.8544  0.4828
 2964UDC     C532598   7.261   2.534   2.776  1.3547 -0.5185  0.7594
 2964UDC     C632599   7.357   2.517   2.889  0.3316 -0.4585 -0.0696
 2964UDC     C732600   7.324   2.379   2.956  0.3748 -0.2806  0.1318
 2964UDC     C832601   7.294   2.250   2.872  0.5116  0.2205  0.0518
 2964UDC     C932602   7.420   2.164   2.835 -0.1305 -0.8793 -0.0745
 2964UDC    C1032603   7.380   2.023   2.789  0.0222 -0.5056 -0.3163
 2964UDC    C1132604   7.351   1.911   2.892  0.3208 -0.4683  0.6182
 2965UDC     C132605   7.120   2.934   7.494 -0.0754  1.3818  0.4471
 2965UDC     C232606   7.106   3.078   7.441 -0.3031 -0.0845  1.2010
 2965UDC     C332607   6.961   3.140   7.415 -0.1946  0.4439 -0.4335
 2965UDC     C432608   6.842   3.047   7.412  0.0878  0.4644  0.2807
 2965UDC     C532609   6.785   3.015   7.269 -0.1856 -0.5086 -0.5139
 2965UDC     C632610   6.697   2.891   7.296 -0.4292  0.2253 -0.0580
 2965UDC     C732611   6.677   2.818   7.165 -0.1902  0.1331 -0.6410
 2965UDC     C832612   6.815   2.815   7.086  0.1238 -0.1977  0.6795
 2965UDC     C932613   6.920   2.714   7.132 -0.7324 -0.1607 -0.3002
 2965UDC    C1032614   7.039   2.681   7.042  0.5857  0.0939  1.9431
 2965UDC    C1132615   7.146   2.585   7.096 -0.8686 -0.2651  0.5113
 2966UDC     C132616  13.136   1.678  15.160 -0.1956 -1.3989  0.6321
 2966UDC     C232617  12.998   1.745  15.148 -1.2536 -1.3530  0.3529
 2966UDC     C332618  12.903   1.678  15.046 -0.2866 -0.1820  0.1143
 2966UDC     C432619  12.755   1.690  15.058  0.5816  0.0879  0.5919
 2966UDC     C532620  12.689   1.828  15.054  0.0813  0.1863  1.3675
 2966UDC     C632621  12.537   1.819  15.008 -0.1620  0.5989  0.4204
 2966UDC     C732622  12.466   1.951  15.044 -0.6791 -0.5632 -0.1118
 2966UDC     C832623  12.314   1.934  15.018 -1.1254  0.7947  0.3075
 2966UDC     C932624  12.246   2.067  15.035  0.8612 -0.1388 -0.2211
 2966UDC    C1032625  12.097   2.077  14.987  0.6587  1.0537  0.9240
 2966UDC    C1132626  12.072   2.037  14.842  1.1735 -0.7681  0.6459
 2967UDC     C132627   7.609   8.313   2.607 -0.0700 -0.0908 -0.4558
 2967UDC     C232628   7.525   8.428   2.543  0.1315 -0.4480 -0.9607
 2967UDC     C332629   7.625   8.521   2.474  0.3005  0.3080 -0.4089
 2967UDC     C432630   7.586   8.660   2.422  0.8504 -0.2357  0.7138
 2967UDC     C532631   7.679   8.752   2.336  0.2628 -0.3454  0.0659
 2967UDC     C632632   7.630   8.902   2.318 -0.3218  0.9032  1.3613
 2967UDC     C732633   7.692   8.958   2.190  0.2836 -1.4534  0.7443
 2967UDC     C832634   7.692   9.114   2.176  0.5548  0.9410  0.6830
 2967UDC     C932635   7.729   9.153   2.030 -0.4960 -0.3640  0.0077
 2967UDC    C1032636   7.790   9.295   1.988 -0.7642  1.5474  0.4182
 2967UDC    C1132637   7.878   9.284   1.867 -0.1927 -0.2224 -1.1353
 2968UDC     C132638   2.977   0.318  17.128  0.6363 -1.0968  0.3591
 2968UDC     C232639   2.968   0.467  17.167 -1.3298 -0.8608  0.0322
 2968UDC     C332640   2.973   0.500  17.315 -0.8988 -0.5069  0.4809
 2968UDC     C432641   2.995   0.655  17.332 -0.2600 -0.2895 -0.4037
 2968UDC     C532642   2.937   0.716  17.456  0.2781  0.1241  0.3144
 2968UDC     C632643   2.934   0.872  17.451 -0.0648 -0.2505 -0.0125
 2968UDC     C732644   2.996   0.934  17.324  0.1599 -0.5514 -1.5152
 2968UDC     C832645   2.919   0.973  17.193 -0.5238  0.6657  0.9126
 2968UDC     C932646   2.815   1.085  17.203 -0.3291 -0.2355 -0.0244
 2968UDC    C1032647   2.881   1.216  17.226 -0.7518 -1.5275 -1.4943
 2968UDC    C1132648   2.907   1.261  17.374 -0.5704  0.4542  0.7661
 2969UDC     C132649  14.019   8.564   4.782 -0.0481 -0.0986  0.4398
 2969UDC     C232650  13.945   8.515   4.906 -0.7875 -0.3649 -0.3074
 2969UDC     C332651  14.037   8.485   5.032 -0.5482 -0.5620 -0.0362
 2969UDC     C432652  14.087   8.343   5.028 -1.1602  0.6282 -0.5020
 2969UDC     C532653  13.988   8.225   4.981 -0.0229 -1.1046  0.8192
 2969UDC     C632654  14.036   8.087   5.031  0.0552  0.4737 -0.4525
 2969UDC     C732655  14.183   8.052   4.992 -0.0359 -0.5784  0.0444
 2969UDC     C832656  14.208   8.064   4.838 -0.4636 -0.5053  0.2038
 2969UDC     C932657  14.349   8.033   4.784 -0.4267 -1.5780  0.6074
 2969UDC    C1032658  14.456   8.132   4.818  0.9739 -0.1579 -0.3916
 2969UDC    C1132659  14.602   8.101   4.775  0.0900 -0.2227  0.4976
 2970UDC     C132660   2.602   7.438  15.618 -1.2599  0.0305  0.1164
 2970UDC     C232661   2.563   7.525  15.745 -0.2346  0.2119  0.7607
 2970UDC     C332662   2.569   7.671  15.711  0.1932  0.5163  1.2543
 2970UDC     C432663   2.501   7.742  15.825  0.2565 -1.1728 -1.2518
 2970UDC     C532664   2.474   7.883  15.796  0.2807 -0.3514 -1.6359
 2970UDC     C632665   2.506   7.982  15.906 -0.6265  0.2673  0.8856
 2970UDC     C732666   2.549   8.110  15.837 -0.8384  0.6785  0.1235
 2970UDC     C832667   2.564   8.221  15.947  0.9932  0.3107 -0.3944
 2970UDC     C932668   2.430   8.265  16.018 -0.9234 -0.1387  0.1025
 2970UDC    C1032669   2.447   8.408  16.058 -0.0763 -0.6187  0.1284
 2970UDC    C1132670   2.527   8.434  16.184  0.8039 -0.3116 -0.7378
 2971UDC     C132671  17.765   2.646   0.937 -0.0415 -0.0468 -0.4704
 2971UDC     C232672  17.762   2.503   0.875  0.1590 -0.3566  0.2735
 2971UDC     C332673  17.895   2.496   0.793 -0.9828 -0.2791 -1.0481
 2971UDC     C432674  17.908   2.595   0.675 -0.1892  1.1095 -0.3734
 2971UDC     C532675  18.055   2.621   0.622 -1.3150 -0.6189  0.6655
 2971UDC     C632676  18.171   2.655   0.720  0.0965  0.3428  0.7102
 2971UDC     C732677  18.315   2.608   0.665 -0.4770 -0.6694 -0.6849
 2971UDC     C832678  18.393   2.595   0.792  0.5425  0.1184 -0.0225
 2971UDC     C932679  18.538   2.615   0.769  1.2534  0.4976 -0.9762
 2971UDC    C1032680  18.597   2.759   0.789 -0.1466 -0.5470 -0.5369
 2971UDC    C1132681  18.733   2.787   0.728  0.0788  0.8238  0.9833
 2972UDC     C132682  18.329  19.018   7.075  0.8004  0.2673  0.5167
 2972UDC     C232683  18.181  19.063   7.044 -0.1512 -0.2489 -0.0851
 2972UDC     C332684  18.076  18.993   7.123 -0.7596  1.2838 -0.6611
 2972UDC     C432685  17.937  19.027   7.069  0.9046  0.9155 -0.1071
 2972UDC     C532686  17.911  19.009   6.917  0.6034 -0.3315  0.4906
 2972UDC     C632687  17.768  19.044   6.865 -0.1451 -0.4488 -0.0273
 2972UDC     C732688  17.721  19.184   6.907  0.3503 -0.9649 -0.0887
 2972UDC     C832689  17.605  19.245   6.824  0.8024 -0.3448  0.5285
 2972UDC     C932690  17.564  19.390   6.845  0.3444 -0.1850  0.3063
 2972UDC    C1032691  17.684  19.477   6.799  0.0996 -0.4347  0.4695
 2972UDC    C1132692  17.648  19.618   6.747  0.3512 -0.5111  0.2835
 2973UDC     C132693   5.110  12.421  13.599 -1.5704 -0.5961  0.6011
 2973UDC     C232694   5.083  12.468  13.743  1.1289  0.1200  0.2503
 2973UDC     C332695   5.154  12.607  13.757 -0.5186  1.6529 -0.7387
 2973UDC     C432696   5.092  12.655  13.891  0.5340 -0.1771 -0.8358
 2973UDC     C532697   5.150  12.791  13.929 -0.4988 -0.3351 -0.5667
 2973UDC     C632698   5.275  12.780  14.023  0.0815 -0.6745  0.2643
 2973UDC     C732699   5.288  12.907  14.113 -0.4560 -0.0742 -0.2813
 2973UDC     C832700   5.452  12.910  14.116  0.8708 -0.7147 -0.3689
 2973UDC     C932701   5.480  12.989  14.245  0.2196  0.2795 -0.7898
 2973UDC    C1032702   5.471  13.139  14.241  0.0034 -1.7103  0.4815
 2973UDC    C1132703   5.557  13.208  14.140  0.6634  0.2447 -0.0978
 2974UDC     C132704  19.080  16.797  16.840 -0.1517 -0.0925 -0.4832
 2974UDC     C232705  19.161  16.768  16.967  0.7826  0.9743 -0.0007
 2974UDC     C332706  19.165  16.627  17.031  0.7797  1.5936  0.0403
 2974UDC     C432707  19.272  16.626  17.146  0.1465 -1.4691  0.6685
 2974UDC     C532708  19.253  16.520  17.245  0.4091 -1.1618 -0.8798
 2974UDC     C632709  19.363  16.523  17.354 -0.3936  0.0920 -0.4608
 2974UDC     C732710  19.481  16.436  17.307  0.6073  1.4282  0.0151
 2974UDC     C832711  19.437  16.285  17.278 -0.6797 -0.1971  0.0943
 2974UDC     C932712  19.551  16.208  17.211 -0.7279  1.2113 -0.1920
 2974UDC    C1032713  19.624  16.275  17.097 -0.8131  0.0540 -0.8963
 2974UDC    C1132714  19.767  16.319  17.109  0.4628  0.2122  0.0409
 2975UDC     C132715  15.205  11.516  13.363  0.6072 -0.7939  0.0088
 2975UDC     C232716  15.158  11.541  13.504  0.8130  1.3426 -0.1063
 2975UDC     C332717  15.014  11.525  13.545  0.1103 -1.0811 -0.5249
 2975UDC     C432718  14.983  11.568  13.680 -0.7438  0.6095 -0.2115
 2975UDC     C532719  14.835  11.589  13.705 -0.4136  0.3621  0.3626
 2975UDC     C632720  14.794  11.660  13.839 -0.1952  0.1513 -0.3244
 2975UDC     C732721  14.661  11.723  13.852  0.4158  0.7909 -1.1078
 2975UDC     C832722  14.541  11.628  13.844 -0.2759  0.5179 -0.0491
 2975UDC     C932723  14.416  11.663  13.761  0.8028  0.3984  0.1794
 2975UDC    C1032724  14.326  11.539  13.746  0.2932 -0.0940  0.9566
 2975UDC    C1132725  14.344  11.444  13.866  0.5077 -0.3706  0.8768
 2976UDC     C132726  10.129  13.105   1.351 -0.2132  0.1444 -0.1524
 2976UDC     C232727  10.249  13.166   1.420 -0.1949  0.0816 -0.5420
 2976UDC     C332728  10.377  13.173   1.333  0.5006  0.4262 -0.3488
 2976UDC     C432729  10.392  13.295   1.237  0.4915  0.7618 -0.0785
 2976UDC     C532730  10.542  13.325   1.234 -0.7370 -0.6638  0.3594
 2976UDC     C632731  10.580  13.419   1.122  0.1812  0.3500  0.1842
 2976UDC     C732732  10.718  13.487   1.127 -0.1112  0.3490  0.4059
 2976UDC     C832733  10.748  13.539   0.988 -0.0502 -0.5458  0.0345
 2976UDC     C932734  10.627  13.585   0.911  0.1897 -1.1590  0.1023
 2976UDC    C1032735  10.668  13.671   0.786  0.0860 -0.3469  0.3179
 2976UDC    C1132736  10.552  13.715   0.705  0.0778 -0.1539  0.3222
 2977UDC     C132737  18.023   5.654  17.203  0.2469 -0.1351  0.5274
 2977UDC     C232738  17.953   5.724  17.094  1.4725  0.0879  0.6445
 2977UDC     C332739  17.877   5.619  17.009 -0.2353  0.3665  1.0076
 2977UDC     C432740  17.780   5.643  16.888  0.2383 -1.0097 -0.0513
 2977UDC     C532741  17.758   5.513  16.792 -0.6317 -0.7736 -0.0649
 2977UDC     C632742  17.672   5.392  16.835 -1.7022  0.5234  0.2679
 2977UDC     C732743  17.630   5.308  16.712  0.0903  0.8018  0.7691
 2977UDC     C832744  17.514   5.352  16.621  0.0622  0.1565  0.1320
 2977UDC     C932745  17.474   5.242  16.517  0.8791  0.6504 -0.0649
 2977UDC    C1032746  17.324   5.207  16.483 -0.1677 -0.4363 -0.3102
 2977UDC    C1132747  17.223   5.173  16.589  0.4359  0.1334 -0.9621
 2978UDC     C132748   1.368  15.630  11.085  0.1394 -0.3233 -0.4332
 2978UDC     C232749   1.346  15.658  11.235 -0.3288  0.5188 -0.0558
 2978UDC     C332750   1.272  15.544  11.309  0.3322 -0.1281  0.2551
 2978UDC     C432751   1.373  15.449  11.371  0.3449  1.1649 -0.1288
 2978UDC     C532752   1.312  15.306  11.372  0.5104  0.1802  0.1535
 2978UDC     C632753   1.166  15.301  11.425 -0.7803  1.3168  0.2921
 2978UDC     C732754   1.129  15.176  11.499 -0.1358  0.6059  0.9112
 2978UDC     C832755   1.171  15.044  11.431  0.1865 -0.1108 -1.0341
 2978UDC     C932756   1.112  14.918  11.495  0.3052 -0.6512 -0.3725
 2978UDC    C1032757   1.092  14.810  11.392 -0.4937  0.0667  0.3858
 2978UDC    C1132758   1.029  14.878  11.263 -1.0963  0.5410 -0.4003
 2979UDC     C132759   7.332  11.038  15.515 -0.0273 -0.2948 -0.5133
 2979UDC     C232760   7.439  11.085  15.420 -0.6218  0.1987  0.3997
 2979UDC     C332761   7.452  10.990  15.304  0.9904 -0.3799 -0.5427
 2979UDC     C432762   7.508  10.851  15.337 -0.5910 -0.0077 -0.1084
 2979UDC     C532763   7.506  10.748  15.228 -0.5122 -0.7638  0.4709
 2979UDC     C632764   7.378  10.684  15.163 -0.9036 -0.4002  0.5727
 2979UDC     C732765   7.395  10.549  15.091 -0.1630  0.3928 -0.5358
 2979UDC     C832766   7.489  10.546  14.979  0.3344 -0.6721 -0.7085
 2979UDC     C932767   7.477  10.425  14.892 -0.4337  0.3413  0.0706
 2979UDC    C1032768   7.610  10.370  14.833  0.3250 -0.2709  0.5005
 2979UDC    C1132769   7.597  10.248  14.738 -0.4031  0.3721  0.2513
 2980UDC     C132770  14.319   0.324   4.870  0.6313  0.0809  0.1448
 2980UDC     C232771  14.195   0.256   4.806  0.5752 -0.6568  0.3155
 2980UDC     C332772  14.215   0.115   4.752  0.8400 -0.3172  0.4313
 2980UDC     C432773  14.241  -0.002   4.848 -0.3928 -0.4947  0.7524
 2980UDC     C532774  14.342  -0.115   4.804  0.3176  0.0019  0.2008
 2980UDC     C632775  14.391  -0.206   4.921  0.1117 -0.8543 -0.0442
 2980UDC     C732776  14.450  -0.341   4.890  0.1025  0.2222  0.4869
 2980UDC     C832777  14.566  -0.340   4.785  0.1024  0.4724  0.9785
 2980UDC     C932778  14.560  -0.477   4.729 -0.3556 -0.0880 -0.7105
 2980UDC    C1032779  14.693  -0.558   4.726 -0.6871  0.8731 -0.1947
 2980UDC    C1132780  14.761  -0.600   4.589 -0.1840  1.0029  0.2088
 2981UDC     C132781  16.885   8.582   5.450 -0.9978  1.2872 -0.4995
 2981UDC     C232782  16.956   8.525   5.577 -0.4799  0.3656 -0.0830
 2981UDC     C332783  17.100   8.480   5.539  0.1291 -0.4112  0.0610
 2981UDC     C432784  17.163   8.412   5.658  1.1037 -0.5169 -0.0528
 2981UDC     C532785  17.271   8.313   5.598  0.5740 -0.6684 -1.6694
 2981UDC     C632786  17.205   8.179   5.561 -0.8172  0.8385  0.4362
 2981UDC     C732787  17.279   8.076   5.481 -0.3540  0.1735 -0.8962
 2981UDC     C832788  17.423   8.041   5.526  0.5078  0.3429  0.5559
 2981UDC     C932789  17.463   7.950   5.646 -1.0374  0.0846  0.5259
 2981UDC    C1032790  17.611   7.955   5.671 -0.4569 -0.2533 -0.1020
 2981UDC    C1132791  17.674   8.084   5.739  0.5412 -0.5880 -0.2077
 2982UDC     C132792  14.688   1.112   7.559  0.2271  0.0448  0.2704
 2982UDC     C232793  14.619   1.055   7.674  0.2254  0.0269 -1.0868
 2982UDC     C332794  14.464   1.032   7.638  0.3083  0.5365 -0.5756
 2982UDC     C432795  14.376   1.154   7.596 -0.2073  1.0775  1.3006
 2982UDC     C532796  14.236   1.149   7.646  0.0570 -0.6675  0.6117
 2982UDC     C632797  14.238   1.166   7.801  0.2064 -0.1377 -0.3009
 2982UDC     C732798  14.093   1.211   7.840 -1.1625 -0.1096 -0.7557
 2982UDC     C832799  14.060   1.166   7.982  0.8664  0.0941  0.1148
 2982UDC     C932800  13.928   1.220   8.041 -0.8120 -0.8870  0.1133
 2982UDC    C1032801  13.922   1.200   8.198 -0.2658  0.3456  1.0667
 2982UDC    C1132802  13.865   1.324   8.274  0.0171 -0.6410  1.1181
 2983UDC     C132803  11.495  13.938  15.154 -0.5171 -0.4545  0.3186
 2983UDC     C232804  11.360  13.874  15.110  0.3126  0.3370  0.3795
 2983UDC     C332805  11.330  13.873  14.963 -0.7372 -0.5193  1.0902
 2983UDC     C432806  11.205  13.804  14.905 -0.5530 -0.3134  0.2365
 2983UDC     C532807  11.197  13.858  14.765  0.7561 -1.0148 -0.2837
 2983UDC     C632808  11.189  14.015  14.732 -0.1854 -0.4928 -0.6713
 2983UDC     C732809  11.325  14.081  14.698  0.1768  0.2909  0.2477
 2983UDC     C832810  11.296  14.219  14.649 -1.0666  0.3716 -1.1082
 2983UDC     C932811  11.409  14.288  14.574 -0.5721 -0.7497 -0.4586
 2983UDC    C1032812  11.386  14.435  14.546  0.0853 -0.8608  0.5446
 2983UDC    C1132813  11.497  14.490  14.455  0.3766  0.0132  0.5651
 2984UDC     C132814   6.403   7.917   3.294  0.6236 -0.2949  0.3342
 2984UDC     C232815   6.469   7.794   3.348 -0.1319 -0.1430  0.8698
 2984UDC     C332816   6.484   7.814   3.497 -0.0461 -0.1711 -0.3478
 2984UDC     C432817   6.624   7.778   3.539 -0.1245  1.3289 -0.2691
 2984UDC     C532818   6.677   7.638   3.494 -0.5748 -0.7045  0.9452
 2984UDC     C632819   6.789   7.595   3.586 -0.5657 -0.5944 -0.2314
 2984UDC     C732820   6.825   7.445   3.564  0.3750  0.8356  0.3736
 2984UDC     C832821   6.940   7.374   3.631  0.0646 -0.8011  1.1517
 2984UDC     C932822   6.992   7.254   3.571  0.1941 -0.9768 -0.3730
 2984UDC    C1032823   7.048   7.271   3.431 -0.3526 -0.3152  0.0198
 2984UDC    C1132824   7.164   7.183   3.383  0.6884  0.0846  1.4593
 2985UDC     C132825   0.871  11.910   5.470 -0.8158 -0.7803 -1.2466
 2985UDC     C232826   0.882  11.974   5.331 -0.3863 -0.4267  0.3903
 2985UDC     C332827   0.838  11.883   5.217 -0.0817 -0.1390 -0.8819
 2985UDC     C432828   0.955  11.792   5.174 -0.3619  1.0959  0.6528
 2985UDC     C532829   1.077  11.869   5.108 -0.2025  0.7470 -0.2115
 2985UDC     C632830   1.213  11.813   5.076  0.2324 -0.3342  1.8461
 2985UDC     C732831   1.302  11.921   5.011 -0.5774  0.8686 -0.3765
 2985UDC     C832832   1.425  11.863   4.958 -1.3177 -1.0146 -0.0903
 2985UDC     C932833   1.429  11.813   4.817 -0.4845 -0.1522  0.4071
 2985UDC    C1032834   1.572  11.803   4.758  1.0232 -0.5515  0.6486
 2985UDC    C1132835   1.566  11.742   4.618 -0.0062  0.7263  0.0037
 2986UDC     C132836  18.208   8.585   0.166 -0.1495 -0.5479  0.4913
 2986UDC     C232837  18.117   8.599   0.292 -0.3769  0.8065 -0.1355
 2986UDC     C332838  18.106   8.750   0.316  0.2449  1.0202 -0.0792
 2986UDC     C432839  18.242   8.812   0.345 -0.8764  0.6886  0.4938
 2986UDC     C532840  18.222   8.965   0.372 -0.2463 -0.1434 -0.9954
 2986UDC     C632841  18.345   9.067   0.396  0.6958 -1.2025  0.2817
 2986UDC     C732842  18.330   9.220   0.387  0.8800 -0.1589 -0.6949
 2986UDC     C832843  18.432   9.323   0.449  0.0289 -0.7136 -0.3246
 2986UDC     C932844  18.406   9.374   0.592  0.2007 -0.9082  0.1457
 2986UDC    C1032845  18.474   9.514   0.628  1.2069 -0.1686 -0.2822
 2986UDC    C1132846  18.408   9.628   0.544  0.4261 -0.6847  0.0349
 2987UDC     C132847  14.261   5.698   2.250 -0.5995  0.0728  0.2306
 2987UDC     C232848  14.374   5.742   2.350 -0.9066  0.5062  0.3789
 2987UDC     C332849  14.513   5.705   2.291  1.3635 -1.0557  0.6564
 2987UDC     C432850  14.556   5.757   2.155 -0.0442  0.1727 -0.4606
 2987UDC     C532851  14.703   5.718   2.122  0.2405 -0.0447  0.9400
 2987UDC     C632852  14.714   5.774   1.981 -0.2272 -0.3629 -0.0827
 2987UDC     C732853  14.660   5.911   1.975 -0.0243 -0.1975 -0.1037
 2987UDC     C832854  14.626   5.945   1.823 -0.2291  1.1447  0.5085
 2987UDC     C932855  14.575   6.087   1.789  0.2039 -1.0992 -0.5274
 2987UDC    C1032856  14.614   6.114   1.646  0.2950  0.1586 -0.0376
 2987UDC    C1132857  14.533   6.237   1.597 -0.5537  0.4172 -0.8476
 2988UDC     C132858  11.567  16.747  17.093  0.2435  0.9726 -0.1776
 2988UDC     C232859  11.637  16.755  16.957  0.6741 -0.8512  0.9343
 2988UDC     C332860  11.663  16.628  16.889  0.6029  0.9945  0.1133
 2988UDC     C432861  11.539  16.592  16.810  0.0270  0.3506  0.4204
 2988UDC     C532862  11.517  16.456  16.750 -0.4796  0.4622  0.4552
 2988UDC     C632863  11.402  16.455  16.646  0.5257 -0.9538 -0.6648
 2988UDC     C732864  11.381  16.315  16.591  0.3427  0.8895  0.3626
 2988UDC     C832865  11.247  16.300  16.508 -0.0249 -0.1770 -0.0887
 2988UDC     C932866  11.231  16.147  16.463 -0.3808 -0.0761 -0.6085
 2988UDC    C1032867  11.131  16.147  16.347 -0.7139  0.5150  0.5294
 2988UDC    C1132868  10.998  16.228  16.362 -0.0213 -0.4051  0.3945
 2989UDC     C132869  14.924   7.831   8.458 -0.6276  0.8490 -2.1945
 2989UDC     C232870  14.872   7.813   8.319  0.9314  1.0161  0.3699
 2989UDC     C332871  14.909   7.686   8.249 -1.0512  0.1357  0.3697
 2989UDC     C432872  15.058   7.657   8.247 -0.2844  0.3482  0.2444
 2989UDC     C532873  15.116   7.588   8.121 -0.3125  0.2699 -0.1707
 2989UDC     C632874  15.195   7.450   8.152  0.3510  0.8758 -0.4747
 2989UDC     C732875  15.332   7.433   8.077 -0.9381  0.3894 -0.3881
 2989UDC     C832876  15.316   7.329   7.968  0.9658  1.1329 -0.1425
 2989UDC     C932877  15.442   7.248   7.953  0.1922  0.1909  0.4532
 2989UDC    C1032878  15.420   7.099   7.895 -1.5771 -0.1446  0.2783
 2989UDC    C1132879  15.440   6.988   8.002  0.5247 -0.2460  0.8476
 2990UDC     C132880  13.567  12.687   7.156  0.3145  0.5034  0.2657
 2990UDC     C232881  13.614  12.775   7.277  0.5267  1.3360 -0.7916
 2990UDC     C332882  13.748  12.839   7.275  0.1504 -0.5289 -0.0934
 2990UDC     C432883  13.743  12.937   7.159  0.3910 -0.2967 -1.5215
 2990UDC     C532884  13.866  13.022   7.147  0.5672 -0.4315 -0.5179
 2990UDC     C632885  13.851  13.145   7.054  1.5219  0.1941  0.0096
 2990UDC     C732886  13.795  13.272   7.128  0.6490  0.8041 -0.0486
 2990UDC     C832887  13.870  13.308   7.261  0.2752 -0.5675  0.4107
 2990UDC     C932888  13.860  13.453   7.309  0.1470 -0.8500  0.2225
 2990UDC    C1032889  13.999  13.516   7.351  0.2964  0.6241  0.0332
 2990UDC    C1132890  14.085  13.533   7.225 -0.1266 -0.7570  0.1307
 2991UDC     C132891   8.067   3.929  11.483  0.0094  0.3423 -0.4783
 2991UDC     C232892   7.987   3.794  11.490 -0.0862  0.7506  0.0364
 2991UDC     C332893   8.021   3.683  11.592 -0.5697  0.8604  0.6017
 2991UDC     C432894   7.899   3.585  11.602 -0.0423 -0.3168  0.2536
 2991UDC     C532895   7.939   3.440  11.659  0.9281  0.0574  0.8298
 2991UDC     C632896   7.872   3.371  11.787  0.4701 -0.5484 -0.9427
 2991UDC     C732897   7.716   3.355  11.769  0.2216  0.0830 -0.0179
 2991UDC     C832898   7.682   3.212  11.733 -0.5465  0.0800 -0.0067
 2991UDC     C932899   7.535   3.183  11.716  0.6711  0.1631 -0.0676
 2991UDC    C1032900   7.458   3.253  11.600 -2.0236 -0.8889  1.1588
 2991UDC    C1132901   7.309   3.234  11.578 -0.6617  0.1163 -0.3505
 2992UDC     C132902  14.608   1.901  16.474 -0.5292 -0.5943  0.7570
 2992UDC     C232903  14.757   1.912  16.460  0.1804 -0.3073  0.9583
 2992UDC     C332904  14.822   1.775  16.420  0.4741  0.1618 -0.6458
 2992UDC     C432905  14.971   1.786  16.388 -0.3151 -0.7596 -0.3594
 2992UDC     C532906  15.054   1.671  16.323  0.9375  0.4574 -1.3795
 2992UDC     C632907  15.079   1.536  16.403 -0.8045  0.3275  0.5084
 2992UDC     C732908  15.034   1.400  16.356  0.1835  0.9851  0.8073
 2992UDC     C832909  15.108   1.268  16.390  0.5173  0.2820 -0.4024
 2992UDC     C932910  15.001   1.176  16.445 -0.4704 -0.4449 -0.3226
 2992UDC    C1032911  15.056   1.039  16.495  0.5319 -0.1648  0.5340
 2992UDC    C1132912  14.934   0.960  16.545 -0.1947  0.1723 -0.1229
 2993UDC     C132913  11.165  13.261  15.435  0.1694 -0.1668  0.2845
 2993UDC     C232914  11.301  13.255  15.502 -0.4040  0.2048  0.1955
 2993UDC     C332915  11.306  13.205  15.640  0.2969  0.7336 -1.2635
 2993UDC     C432916  11.430  13.253  15.709 -0.8446  0.7861  0.4125
 2993UDC     C532917  11.443  13.249  15.861 -0.7841  0.5002  0.6213
 2993UDC     C632918  11.428  13.100  15.921  0.2357 -0.6415 -0.2438
 2993UDC     C732919  11.353  13.110  16.058 -1.0290 -0.7273  1.0565
 2993UDC     C832920  11.408  13.049  16.190  0.0916  2.0979 -0.5375
 2993UDC     C932921  11.328  13.096  16.316 -0.9155  0.2223 -1.1322
 2993UDC    C1032922  11.340  13.244  16.353  0.3526 -0.4920 -0.2139
 2993UDC    C1132923  11.347  13.310  16.495  0.1513 -0.0295  0.3315
 2994UDC     C132924  13.189  12.295   5.497 -0.1589  0.5033  0.3781
 2994UDC     C232925  13.262  12.183   5.578  0.1117 -0.4625  0.0752
 2994UDC     C332926  13.231  12.126   5.716 -0.7243 -0.2690 -0.4238
 2994UDC     C432927  13.372  12.088   5.781  1.0842  0.3771 -0.3514
 2994UDC     C532928  13.498  12.179   5.750 -0.1572 -0.6577  0.1175
 2994UDC     C632929  13.634  12.100   5.765 -0.5480 -0.6070  0.1254
 2994UDC     C732930  13.749  12.177   5.700 -1.0981  0.1214 -0.9507
 2994UDC     C832931  13.739  12.176   5.548  0.1368  0.3283  0.9070
 2994UDC     C932932  13.842  12.275   5.497 -0.9360  0.3662  0.1369
 2994UDC    C1032933  13.797  12.418   5.538  0.1210 -0.0325  0.9512
 2994UDC    C1132934  13.907  12.531   5.530  0.8052 -0.2684  0.7668
 2995UDC     C132935   1.899  14.109  16.753  0.8244 -0.4300  0.9173
 2995UDC     C232936   1.758  14.065  16.738  0.8760  0.4655 -0.4424
 2995UDC     C332937   1.720  14.027  16.596  0.4992  0.0556 -0.0902
 2995UDC     C432938   1.794  13.923  16.520  0.5860 -0.0242 -1.4739
 2995UDC     C532939   1.749  13.925  16.379  0.4298  1.5479 -0.3976
 2995UDC     C632940   1.598  13.946  16.369  0.1448 -0.6327  1.2372
 2995UDC     C732941   1.556  13.986  16.218  0.5028  0.3523  0.2171
 2995UDC     C832942   1.397  13.996  16.208  0.3715  0.1739  0.0272
 2995UDC     C932943   1.341  14.028  16.070 -0.5067  0.2241 -0.6569
 2995UDC    C1032944   1.335  14.180  16.047 -0.3805 -0.0090  0.2091
 2995UDC    C1132945   1.472  14.239  15.993  0.6482  0.5062  0.1083
 2996UDC     C132946   4.871  13.246  13.775  0.1472  0.2532  0.4309
 2996UDC     C232947   4.802  13.380  13.744 -0.2625  0.3729  0.4891
 2996UDC     C332948   4.873  13.450  13.626 -0.6168  0.3139 -0.3384
 2996UDC     C432949   5.023  13.500  13.638 -0.8034  0.2824  0.2139
 2996UDC     C532950   5.119  13.424  13.550 -0.2355  0.1521  0.5232
 2996UDC     C632951   5.260  13.451  13.597 -0.2640 -0.5545  0.2449
 2996UDC     C732952   5.314  13.593  13.574  0.8930  0.0074  0.4236
 2996UDC     C832953   5.413  13.647  13.678  1.1741  0.3062 -0.9432
 2996UDC     C932954   5.366  13.686  13.821 -0.4108  0.2820 -0.0096
 2996UDC    C1032955   5.317  13.559  13.907  0.4191  0.0646 -0.3353
 2996UDC    C1132956   5.436  13.489  13.972 -0.4548  0.4277 -0.5463
 2997UDC     C132957  13.865  19.125   8.651 -0.0264  0.1945  0.3609
 2997UDC     C232958  13.740  19.069   8.581  0.5638 -0.9676  0.1098
 2997UDC     C332959  13.765  18.974   8.460 -0.7761 -0.2982  0.1629
 2997UDC     C432960  13.666  18.995   8.345 -0.3865  0.1525 -0.1518
 2997UDC     C532961  13.656  19.148   8.318 -1.1258 -0.3634  0.6445
 2997UDC     C632962  13.638  19.183   8.167  0.0495  0.0785 -0.2960
 2997UDC     C732963  13.499  19.183   8.103 -1.1799 -0.3279 -0.3428
 2997UDC     C832964  13.417  19.059   8.109  0.3328  0.0709 -1.4022
 2997UDC     C932965  13.264  19.076   8.096 -0.5474  0.5389 -0.5643
 2997UDC    C1032966  13.164  19.090   8.210 -0.4496  1.1132 -1.3435
 2997UDC    C1132967  13.026  19.106   8.150 -0.0542 -0.1608  0.2111
 2998UDC     C132968   1.816  16.051   5.834  0.4590  1.0433 -1.5019
 2998UDC     C232969   1.957  15.984   5.812  0.5910  0.8472  0.2299
 2998UDC     C332970   1.938  15.831   5.798  0.5347  0.6775  0.3510
 2998UDC     C432971   1.906  15.777   5.935  0.2666 -1.1567  0.1555
 2998UDC     C532972   2.027  15.773   6.035 -0.4744 -0.4739 -0.5915
 2998UDC     C632973   1.986  15.737   6.174  1.1479 -0.6978 -0.4244
 2998UDC     C732974   1.889  15.836   6.226  0.5720  1.1701 -0.3597
 2998UDC     C832975   1.874  15.780   6.373 -0.6725 -0.3795 -0.6232
 2998UDC     C932976   1.748  15.843   6.442 -0.6853 -1.1536  0.2269
 2998UDC    C1032977   1.615  15.842   6.357 -0.8581 -0.4211 -0.6983
 2998UDC    C1132978   1.491  15.834   6.450 -0.0892  0.0008  1.0629
 2999UDC     C132979  16.312  13.340  13.009  0.8782 -0.8195 -0.4038
 2999UDC     C232980  16.411  13.358  13.128  0.4029 -0.6438 -0.6676
 2999UDC     C332981  16.392  13.494  13.193  0.2633 -0.7011  0.2348
 2999UDC     C432982  16.504  13.532  13.289 -0.2156  1.8090  0.1960
 2999UDC     C532983  16.627  13.601  13.234 -0.2765 -0.1210  0.0364
 2999UDC     C632984  16.605  13.749  13.226  0.4594  0.8184  0.0056
 2999UDC     C732985  16.732  13.825  13.237 -0.6335 -0.1671 -0.9366
 2999UDC     C832986  16.831  13.793  13.346  0.0353  0.5466 -0.4995
 2999UDC     C932987  16.767  13.759  13.480 -1.0368  0.5412  0.2662
 2999UDC    C1032988  16.768  13.878  13.575  0.3219 -0.5920 -0.4439
 2999UDC    C1132989  16.763  13.819  13.714 -0.0241 -0.7523 -0.4363
 3000UDC     C132990   3.440  19.827  15.740 -0.3676  0.3507  0.3041
 3000UDC     C232991   3.305  19.877  15.683  0.6745 -0.8370 -0.6286
 3000UDC     C332992   3.198  19.767  15.664  0.3220 -0.3407  1.3901
 3000UDC     C432993   3.202  19.680  15.539 -0.6523  1.0828  0.6244
 3000UDC     C532994   3.071  19.602  15.516 -0.5385 -0.5818  0.8734
 3000UDC     C632995   3.088  19.454  15.561  1.1973 -0.0054  1.0892
 3000UDC     C732996   3.115  19.435  15.710 -0.5882  0.0457  0.4947
 3000UDC     C832997   3.070  19.290  15.740 -0.3176  1.1578  0.7689
 3000UDC     C932998   2.959  19.286  15.846  0.4353 -0.9141  0.5643
 3000UDC    C1032999   2.816  19.296  15.790  0.3588  1.4739 -0.6314
 3000UDC    C1133000   2.715  19.375  15.862  0.1335 -0.5480 -0.0177
 3001UDC     C133001  17.941   9.847   5.493 -0.1458  0.3894 -0.3239
 3001UDC     C233002  18.038   9.735   5.463  0.8838  0.9767  0.8009
 3001UDC     C333003  18.121   9.766   5.338 -1.1860  0.9187 -1.0294
 3001UDC     C433004  18.047   9.804   5.208  1.7770 -1.0103  0.1452
 3001UDC     C533005  18.143   9.839   5.088 -0.4487 -0.4513 -0.8554
 3001UDC     C633006  18.058   9.860   4.958  0.1308  0.3076 -0.4326
 3001UDC     C733007  18.156   9.853   4.846  0.7781  0.1259  0.2587
 3001UDC     C833008  18.116   9.867   4.692  0.2423  0.3837 -0.1070
 3001UDC     C933009  18.081   9.727   4.641  0.5117 -0.2425 -0.3798
 3001UDC    C1033010  18.023   9.753   4.497 -0.3077 -0.8342 -1.1411
 3001UDC    C1133011  18.111   9.846   4.411 -1.3010  0.0515  0.5285
 3002UDC     C133012  19.657   1.895   1.025  0.0806  0.3859  0.7429
 3002UDC     C233013  19.776   1.905   0.927 -0.9887  0.2746 -0.1846
 3002UDC     C333014  19.801   1.768   0.862  0.8562 -0.3972 -0.0638
 3002UDC     C433015  19.925   1.779   0.786 -0.8197  0.3476  1.1986
 3002UDC     C533016  19.963   1.661   0.691  0.5663  0.4425 -0.1526
 3002UDC     C633017  20.084   1.679   0.602  1.0218 -0.3523 -0.0602
 3002UDC     C733018  20.092   1.812   0.514  0.8212 -0.1134 -0.5492
 3002UDC     C833019  20.018   1.785   0.386  0.4638 -0.8466  0.7959
 3002UDC     C933020  19.953   1.903   0.315 -0.3419 -1.0116 -0.0438
 3002UDC    C1033021  20.050   1.995   0.236  0.4439  1.1801  0.2824
 3002UDC    C1133022  20.005   2.137   0.196 -0.1667 -0.7690  0.3972
 3003UDC     C133023  17.186   1.344  18.069 -0.8861  0.4239  0.3257
 3003UDC     C233024  17.122   1.257  18.176  0.1447  0.4311 -1.2544
 3003UDC     C333025  16.969   1.219  18.179 -0.6334 -0.0287 -0.1584
 3003UDC     C433026  16.943   1.163  18.319 -0.1608  0.3026  0.9895
 3003UDC     C533027  16.818   1.085  18.363  0.2404 -0.0905  0.0571
 3003UDC     C633028  16.830   1.003  18.488  0.1158 -0.4685 -0.2778
 3003UDC     C733029  16.941   0.896  18.485 -0.3074  0.3894  0.0094
 3003UDC     C833030  16.965   0.831  18.624 -0.2208  0.4973  0.3439
 3003UDC     C933031  16.850   0.726  18.650  0.7251  0.4619  0.3659
 3003UDC    C1033032  16.841   0.597  18.565  0.8556 -0.6053  1.0086
 3003UDC    C1133033  16.919   0.474  18.618 -0.2432 -1.1131 -0.6000
 3004UDC     C133034   2.024  12.760  15.789 -0.2819 -0.4699  0.5018
 3004UDC     C233035   2.066  12.725  15.935  0.2156  0.6952  0.3380
 3004UDC     C333036   1.973  12.619  16.007 -0.0936 -0.2587  0.0917
 3004UDC     C433037   1.837  12.668  16.040 -0.2103 -0.9145 -0.4620
 3004UDC     C533038   1.854  12.803  16.118 -0.7265 -0.0803  0.9722
 3004UDC     C633039   1.724  12.838  16.197  0.2456 -1.3786  0.4978
 3004UDC     C733040   1.745  12.936  16.318  0.7589  0.6468 -1.0056
 3004UDC     C833041   1.731  13.087  16.289 -0.0125 -0.0362 -1.0710
 3004UDC     C933042   1.774  13.167  16.414 -0.2556  0.1232 -0.6289
 3004UDC    C1033043   1.776  13.314  16.389  0.1022  0.4186  0.2943
 3004UDC    C1133044   1.656  13.386  16.450 -1.3732 -0.2069 -1.0721
 3005UDC     C133045  17.624  13.972  17.340 -0.1775 -1.0057  0.1979
 3005UDC     C233046  17.618  13.830  17.270  0.1231  0.1799 -0.5718
 3005UDC     C333047  17.712  13.735  17.346 -0.3222 -0.0418 -1.5773
 3005UDC     C433048  17.868  13.764  17.352  0.1628  0.1053  0.2866
 3005UDC     C533049  17.931  13.655  17.438 -0.0887 -0.0676  1.0790
 3005UDC     C633050  17.879  13.657  17.582 -0.3335  0.0939 -0.1714
 3005UDC     C733051  17.844  13.523  17.657 -0.5691  0.0345  0.5723
 3005UDC     C833052  17.947  13.440  17.741 -0.0039 -1.2995 -1.0218
 3005UDC     C933053  17.901  13.295  17.740 -0.6377 -0.0031 -0.4243
 3005UDC    C1033054  17.934  13.213  17.865  0.5384 -0.0883  0.4300
 3005UDC    C1133055  18.079  13.167  17.875 -0.2058 -0.5099 -0.3878
 3006UDC     C133056   4.479  11.480   1.341 -0.5658 -0.5595  0.0374
 3006UDC     C233057   4.333  11.485   1.318  0.1314 -0.7428  0.7131
 3006UDC     C333058   4.262  11.364   1.260  0.0232  0.4581 -0.2200
 3006UDC     C433059   4.122  11.361   1.312  0.1654  0.6470 -0.3965
 3006UDC     C533060   4.071  11.215   1.317 -0.1686  0.6720 -0.1761
 3006UDC     C633061   3.937  11.221   1.392 -0.0903 -0.7447 -0.3977
 3006UDC     C733062   3.851  11.092   1.381 -0.5408  0.6904 -0.5771
 3006UDC     C833063   3.716  11.096   1.458 -1.4388  0.3293  0.1643
 3006UDC     C933064   3.731  11.046   1.600 -0.4344  0.0086 -0.1740
 3006UDC    C1033065   3.722  10.889   1.618 -1.1945  0.0139  0.4261
 3006UDC    C1133066   3.856  10.815   1.605 -0.0141  0.1696 -0.5791
 3007UDC     C133067  14.090  18.647  14.063  0.2550  0.0443  0.0896
 3007UDC     C233068  14.067  18.551  14.186 -1.0848  0.0724  1.4463
 3007UDC     C333069  13.923  18.509  14.223  1.3723 -0.5592 -0.1774
 3007UDC     C433070  13.840  18.437  14.112  0.6941  0.1987 -0.3084
 3007UDC     C533071  13.692  18.433  14.162  0.1302 -0.0291  1.1860
 3007UDC     C633072  13.638  18.566  14.196 -0.2942 -0.1746  0.3367
 3007UDC     C733073  13.486  18.554  14.229  0.4675 -0.9542  0.1273
 3007UDC     C833074  13.413  18.686  14.275 -0.2154 -0.6799 -0.1208
 3007UDC     C933075  13.266  18.654  14.327  0.0635 -0.1989  0.1452
 3007UDC    C1033076  13.165  18.768  14.349 -0.6446  0.8246  0.5169
 3007UDC    C1133077  13.034  18.711  14.422 -0.4994 -0.6524  0.4255
 3008UDC     C133078   5.600   9.874   1.708 -0.4185  0.5448  0.4766
 3008UDC     C233079   5.689   9.997   1.730 -0.2955  0.2738 -0.1551
 3008UDC     C333080   5.816  10.016   1.647 -0.3295  0.3976 -0.2403
 3008UDC     C433081   5.942   9.948   1.715  0.4536 -0.2056 -0.0853
 3008UDC     C533082   5.996  10.016   1.842 -0.1172  0.3780 -0.8738
 3008UDC     C633083   5.935   9.995   1.977  0.4184  0.6916 -0.4657
 3008UDC     C733084   5.963  10.091   2.099  0.9254  0.4743 -0.0676
 3008UDC     C833085   5.893  10.229   2.089 -0.0981  0.3373  0.6354
 3008UDC     C933086   5.743  10.252   2.123 -0.5146  0.5201  0.1817
 3008UDC    C1033087   5.724  10.241   2.274 -0.0556 -0.1936  0.3787
 3008UDC    C1133088   5.584  10.272   2.320 -1.0100  0.4120  0.6465
 3009UDC     C133089  16.942  16.323   1.335 -0.6098  0.1589  1.1950
 3009UDC     C233090  16.793  16.317   1.294 -0.5794  0.3699 -0.0294
 3009UDC     C333091  16.760  16.350   1.141 -0.3139 -0.1513 -0.9873
 3009UDC     C433092  16.769  16.498   1.119 -0.5433 -0.5957 -0.1604
 3009UDC     C533093  16.702  16.557   0.997  0.7955 -0.4498  0.1522
 3009UDC     C633094  16.700  16.710   0.976  0.3610 -0.8539  0.1743
 3009UDC     C733095  16.850  16.752   0.976  0.0850  1.0129  0.8091
 3009UDC     C833096  16.845  16.901   0.961  1.0087 -0.2525  0.3074
 3009UDC     C933097  16.870  16.951   0.811 -0.2315 -0.2026  0.1425
 3009UDC    C1033098  16.849  17.099   0.800  0.4108 -0.4787  0.6556
 3009UDC    C1133099  16.768  17.145   0.682 -0.2141 -0.5304 -0.0243
 3010UDC     C133100  11.729  14.875   2.990  0.5698 -1.0887  2.2514
 3010UDC     C233101  11.612  14.970   3.022 -0.4838 -0.1394 -0.1136
 3010UDC     C333102  11.650  15.111   3.082 -0.1022  0.3461  0.2549
 3010UDC     C433103  11.539  15.213   3.078 -0.0454 -0.0014 -0.5241
 3010UDC     C533104  11.568  15.350   3.142 -0.9707 -0.2132  0.2214
 3010UDC     C633105  11.586  15.351   3.291 -1.1046 -0.8829 -0.2568
 3010UDC     C733106  11.471  15.298   3.376 -0.5092 -0.3006 -0.0066
 3010UDC     C833107  11.479  15.338   3.521 -0.5617  0.0221 -0.0019
 3010UDC     C933108  11.600  15.283   3.598 -1.2576  0.5098 -0.1075
 3010UDC    C1033109  11.603  15.329   3.742  0.2993 -0.3195 -0.7838
 3010UDC    C1133110  11.673  15.229   3.838  0.9079 -0.7077  0.6711
 3011UDC     C133111   1.184   9.681  15.744  0.5362  0.1101 -0.7052
 3011UDC     C233112   1.071   9.761  15.675  1.2312 -0.3848 -0.4251
 3011UDC     C333113   1.011   9.877  15.759 -0.7841  0.3450  0.8561
 3011UDC     C433114   1.111   9.990  15.790  0.1887  0.6782  0.3004
 3011UDC     C533115   1.031  10.114  15.765 -0.1968  0.2194  0.4643
 3011UDC     C633116   0.886  10.127  15.817  0.9057 -0.9151 -0.6354
 3011UDC     C733117   0.821  10.272  15.813  0.1285  0.3370  0.9282
 3011UDC     C833118   0.687  10.253  15.875 -0.0539 -0.4087  0.0508
 3011UDC     C933119   0.625  10.387  15.901  0.1998 -0.2634  0.3497
 3011UDC    C1033120   0.707  10.488  15.984 -0.3962 -0.2429 -0.0313
 3011UDC    C1133121   0.722  10.441  16.134  0.2821 -0.3722 -0.2498
 3012UDC     C133122  17.221  14.773  18.176 -0.0775 -0.2415 -0.4421
 3012UDC     C233123  17.198  14.890  18.075 -0.7765 -0.2513  1.4513
 3012UDC     C333124  17.205  14.836  17.931  0.2058  0.0818  0.2026
 3012UDC     C433125  17.192  14.929  17.810 -0.1196  0.0915 -0.0819
 3012UDC     C533126  17.243  14.866  17.675  1.3815  0.4384  0.2451
 3012UDC     C633127  17.254  14.947  17.553 -0.1923 -0.4300  0.5258
 3012UDC     C733128  17.296  14.890  17.419 -0.0771  0.8437 -0.4783
 3012UDC     C833129  17.341  14.995  17.323 -0.8475  0.3297  0.3086
 3012UDC     C933130  17.482  15.040  17.364 -0.5344 -0.4195  0.0733
 3012UDC    C1033131  17.526  15.189  17.338 -0.3959 -0.0522  0.5431
 3012UDC    C1133132  17.543  15.229  17.184 -0.6819  0.1057 -0.3468
 3013UDC     C133133  13.138  17.548  17.584  0.5950  0.4412  0.5962
 3013UDC     C233134  13.070  17.689  17.573 -0.6812  0.0720  0.3100
 3013UDC     C333135  13.154  17.813  17.548 -0.2200 -0.3764 -0.8381
 3013UDC     C433136  13.066  17.940  17.549 -0.2009 -0.2439 -0.3256
 3013UDC     C533137  12.986  17.998  17.666 -1.0627  0.9701 -0.4338
 3013UDC     C633138  12.930  18.130  17.633 -0.8318 -0.3795  0.5818
 3013UDC     C733139  12.836  18.122  17.514 -0.1199  0.2599  1.3901
 3013UDC     C833140  12.695  18.180  17.513  0.2834 -0.4366  0.9309
 3013UDC     C933141  12.630  18.176  17.375  0.1392  0.4424 -0.2646
 3013UDC    C1033142  12.483  18.205  17.373 -0.1071 -0.5965  0.5365
 3013UDC    C1133143  12.407  18.188  17.243 -0.5465  0.6833  0.2652
 3014UDC     C133144  19.755  11.969   4.985  1.6285 -0.3831  0.4860
 3014UDC     C233145  19.619  11.900   4.974 -0.6596  0.3916  0.6508
 3014UDC     C333146  19.509  12.001   4.964  0.3640 -1.0451 -0.5963
 3014UDC     C433147  19.483  12.084   5.100  0.2474  0.5136 -0.5285
 3014UDC     C533148  19.414  12.213   5.068  0.7473 -0.1630 -0.7714
 3014UDC     C633149  19.420  12.291   5.208  0.7832  1.0451  0.0537
 3014UDC     C733150  19.554  12.349   5.261 -0.3366  0.4053  0.8949
 3014UDC     C833151  19.547  12.501   5.297  0.3558  0.2871  0.2460
 3014UDC     C933152  19.683  12.556   5.332 -0.3883 -0.4405  0.9802
 3014UDC    C1033153  19.682  12.698   5.384 -0.1277  0.7330  0.8247
 3014UDC    C1133154  19.816  12.771   5.398  0.7616  0.4574  0.2033
 3015UDC     C133155  12.749  15.900   6.891  0.3871  1.6853  0.8336
 3015UDC     C233156  12.671  15.919   7.023  0.7468  0.5611  0.5730
 3015UDC     C333157  12.515  15.923   7.012  0.0323 -0.2786  0.6598
 3015UDC     C433158  12.436  15.794   7.016 -0.5796  0.2955 -0.9670
 3015UDC     C533159  12.288  15.817   7.044 -0.1125  0.7250 -0.2099
 3015UDC     C633160  12.205  15.712   7.122 -0.6968  0.0075  0.8096
 3015UDC     C733161  12.233  15.705   7.271  0.3201 -0.5659 -0.7778
 3015UDC     C833162  12.206  15.561   7.331  0.1570 -0.4899 -0.0113
 3015UDC     C933163  12.180  15.555   7.481 -0.4813 -0.0867  0.2819
 3015UDC    C1033164  12.260  15.619   7.598  0.1932 -0.7252 -0.4740
 3015UDC    C1133165  12.358  15.517   7.653 -0.2219 -0.2600  0.1381
 3016UDC     C133166   8.498   1.158   1.212  0.9680 -0.9025 -0.6884
 3016UDC     C233167   8.451   1.303   1.211  0.0660  0.0606  1.0298
 3016UDC     C333168   8.554   1.416   1.191 -0.0673 -0.1896  0.3817
 3016UDC     C433169   8.504   1.522   1.089  0.2940 -1.1070 -0.2166
 3016UDC     C533170   8.364   1.585   1.097  0.1306  0.3647  0.4765
 3016UDC     C633171   8.325   1.637   0.958 -0.7304 -0.3171  0.1221
 3016UDC     C733172   8.462   1.681   0.887  0.6875 -0.3446  0.6768
 3016UDC     C833173   8.449   1.738   0.742 -1.2793 -0.0709  1.1809
 3016UDC     C933174   8.579   1.784   0.667 -0.2681 -0.8413  0.1252
 3016UDC    C1033175   8.627   1.912   0.746  0.8271 -1.0109  0.2071
 3016UDC    C1133176   8.721   2.015   0.679 -0.3517  0.3152  0.8989
 3017UDC     C133177   7.075  14.913   1.768 -0.5096 -0.6774  0.1273
 3017UDC     C233178   6.923  14.938   1.815  0.2975 -0.2449  0.6696
 3017UDC     C333179   6.839  14.816   1.847 -0.2209 -0.2382 -0.0194
 3017UDC     C433180   6.886  14.756   1.981 -0.6691 -0.1981 -0.0701
 3017UDC     C533181   6.874  14.610   2.029 -0.3748 -0.8059 -0.3993
 3017UDC     C633182   6.894  14.512   1.914  0.1067 -0.7613  0.0454
 3017UDC     C733183   6.927  14.364   1.965 -0.3870 -0.3608  0.1667
 3017UDC     C833184   7.062  14.361   2.029 -1.0424  0.5280  0.2344
 3017UDC     C933185   7.122  14.215   2.029  0.9102 -1.2016  0.3537
 3017UDC    C1033186   7.068  14.111   2.126 -0.9032 -0.2450 -1.0518
 3017UDC    C1133187   7.037  13.974   2.060 -0.1160  0.6889  0.1676
 3018UDC     C133188  18.694  13.263   1.286 -0.4845 -0.6866  0.0076
 3018UDC     C233189  18.708  13.411   1.324  0.2442  0.4496  0.6913
 3018UDC     C333190  18.617  13.458   1.441 -0.4242 -0.7182  0.6801
 3018UDC     C433191  18.643  13.601   1.478 -0.0086  0.0972  0.4727
 3018UDC     C533192  18.784  13.657   1.476  0.6532  0.3662  0.7186
 3018UDC     C633193  18.831  13.738   1.344 -0.0723  0.4872 -0.9866
 3018UDC     C733194  18.972  13.807   1.350  0.3289  0.1514  0.5410
 3018UDC     C833195  19.022  13.851   1.214  1.0834  0.9256  0.7086
 3018UDC     C933196  19.145  13.929   1.228 -0.7558  0.2749  0.4105
 3018UDC    C1033197  19.259  13.850   1.295  0.2583  0.8373 -0.6415
 3018UDC    C1133198  19.365  13.947   1.354  0.3696 -0.8055  0.0447
 3019UDC     C133199   8.192  17.447  14.169  0.3158 -0.2670  0.2904
 3019UDC     C233200   8.136  17.519  14.047  0.1661  0.8592 -0.4292
 3019UDC     C333201   8.216  17.513  13.914  0.0597 -0.4982  0.0665
 3019UDC     C433202   8.140  17.523  13.778  0.9081 -1.2352 -0.5825
 3019UDC     C533203   8.069  17.656  13.758  0.4910  0.2622  0.5648
 3019UDC     C633204   7.947  17.622  13.680  0.8763  0.0144  0.8825
 3019UDC     C733205   7.912  17.721  13.562  1.7937  1.1120 -0.2688
 3019UDC     C833206   7.808  17.655  13.485  0.7394  0.9933  1.0284
 3019UDC     C933207   7.680  17.728  13.497  0.2662  1.6750  1.2576
 3019UDC    C1033208   7.598  17.738  13.371 -0.2445 -0.1798 -0.5945
 3019UDC    C1133209   7.603  17.623  13.267  0.2714  0.0752 -0.0112
 3020UDC     C133210   8.495  11.907  10.011 -0.5265 -0.2663 -0.5565
 3020UDC     C233211   8.551  11.763  10.003  0.9977  1.1859  0.0376
 3020UDC     C333212   8.440  11.662  10.021  0.3042  0.4355 -0.5098
 3020UDC     C433213   8.476  11.515  10.022  0.1616  1.1262 -0.7109
 3020UDC     C533214   8.357  11.425  10.067  0.6534 -1.3282  0.3325
 3020UDC     C633215   8.346  11.274  10.019 -0.0088 -1.0226 -0.0149
 3020UDC     C733216   8.385  11.265   9.874 -1.5183  0.8793 -0.6004
 3020UDC     C833217   8.305  11.158   9.789 -0.1011  0.6239 -0.0099
 3020UDC     C933218   8.336  11.162   9.639  0.1807 -0.1752  0.9233
 3020UDC    C1033219   8.277  11.265   9.548  0.9109  0.3186  0.4717
 3020UDC    C1133220   8.125  11.258   9.527  0.3931 -0.3163  0.6040
 3021UDC     C133221  17.481   0.872   0.029  0.7191 -0.1981  0.4810
 3021UDC     C233222  17.565   0.756  -0.025  0.9305  0.4403 -0.5681
 3021UDC     C333223  17.669   0.789  -0.133 -0.3260  0.2717  0.3708
 3021UDC     C433224  17.773   0.670  -0.144 -0.3710 -0.1353  0.8368
 3021UDC     C533225  17.842   0.684  -0.280 -0.4151  0.3328 -0.4408
 3021UDC     C633226  17.975   0.611  -0.322  0.1524 -0.5805 -0.3073
 3021UDC     C733227  18.096   0.664  -0.237 -0.3393  0.4802  0.3126
 3021UDC     C833228  18.169   0.773  -0.310 -0.2910  0.1131 -0.4205
 3021UDC     C933229  18.317   0.775  -0.298  0.4785 -0.0581 -1.0181
 3021UDC    C1033230  18.395   0.833  -0.184 -0.0770  0.7726  0.9338
 3021UDC    C1133231  18.541   0.802  -0.177 -0.3537  1.6010 -0.1536
 3022UDC     C133232  16.538   1.948  16.579  0.3673 -0.6412 -0.2208
 3022UDC     C233233  16.484   2.067  16.499  0.1006 -0.8090  0.3367
 3022UDC     C333234  16.447   2.046  16.351  0.5595 -0.3623  0.6524
 3022UDC     C433235  16.301   2.023  16.293 -0.7325 -0.9420 -0.0062
 3022UDC     C533236  16.249   1.882  16.259 -0.1733  0.2009  1.1070
 3022UDC     C633237  16.353   1.809  16.168 -0.6331  0.3421 -1.3077
 3022UDC     C733238  16.303   1.689  16.088 -0.4943  0.0905 -0.0438
 3022UDC     C833239  16.401   1.652  15.973 -0.5373  0.8312 -1.2734
 3022UDC     C933240  16.369   1.539  15.878 -0.1240  0.4084 -0.7148
 3022UDC    C1033241  16.260   1.584  15.781 -0.4092 -0.4309  0.0685
 3022UDC    C1133242  16.315   1.695  15.697 -0.1056 -0.6616 -0.4057
 3023UDC     C133243   7.975   9.784   2.386  0.2609  0.7815  0.2393
 3023UDC     C233244   8.041   9.738   2.513 -0.0290 -0.2898  0.1461
 3023UDC     C333245   7.966   9.741   2.653  0.3584  0.2417 -0.3584
 3023UDC     C433246   8.059   9.699   2.772 -0.3507 -0.0783  0.2845
 3023UDC     C533247   7.988   9.672   2.911 -1.2984 -0.8255  1.9097
 3023UDC     C633248   8.078   9.648   3.035 -0.0153  0.1141  0.4467
 3023UDC     C733249   8.124   9.510   3.070 -0.6127 -0.0050  0.0800
 3023UDC     C833250   8.155   9.516   3.215 -0.8312  0.4031 -0.6464
 3023UDC     C933251   8.064   9.606   3.302 -1.6781 -0.1441  1.0969
 3023UDC    C1033252   7.981   9.509   3.389  0.3337 -0.0562 -0.1035
 3023UDC    C1133253   7.874   9.599   3.459  0.5175  0.4144 -0.4953
 3024UDC     C133254  16.572  14.036   0.452 -0.3665 -0.0133  1.1633
 3024UDC     C233255  16.632  13.896   0.472  0.2683 -0.0831  1.0497
 3024UDC     C333256  16.748  13.856   0.377  0.0062  0.0490 -0.3484
 3024UDC     C433257  16.762  13.699   0.414 -0.5292 -0.5986  0.1613
 3024UDC     C533258  16.825  13.623   0.294  0.1916  0.7653 -1.1821
 3024UDC     C633259  16.949  13.669   0.217  0.0741  0.0906  0.3716
 3024UDC     C733260  17.021  13.555   0.144  0.9372 -0.0791  0.9080
 3024UDC     C833261  17.158  13.590   0.101 -0.8123 -0.4571  1.1181
 3024UDC     C933262  17.220  13.453   0.051 -0.5877  0.3281  0.1667
 3024UDC    C1033263  17.369  13.434   0.022  0.4339  0.2382  0.1205
 3024UDC    C1133264  17.393  13.539  -0.083  0.6177 -0.7808 -0.5886
 3025UDC     C133265   4.578   9.336  19.255 -0.3210  0.8996 -0.3518
 3025UDC     C233266   4.655   9.323  19.396  1.2262  0.1516 -0.0975
 3025UDC     C333267   4.591   9.208  19.482  0.4705  0.8770  0.0757
 3025UDC     C433268   4.441   9.202  19.467  0.2807  0.3182  0.5198
 3025UDC     C533269   4.354   9.227  19.592 -0.8294  0.1705 -0.3098
 3025UDC     C633270   4.205   9.221  19.550  0.1249 -0.1617  0.8187
 3025UDC     C733271   4.201   9.325  19.436 -0.5636 -0.7350 -0.3634
 3025UDC     C833272   4.074   9.381  19.371 -0.1363  0.4960  0.8493
 3025UDC     C933273   3.975   9.263  19.378  0.6599  0.2950  0.6811
 3025UDC    C1033274   3.837   9.315  19.335  0.5567 -0.1402 -1.0119
 3025UDC    C1133275   3.720   9.216  19.355  0.2968  0.3288  0.3490
 3026UDC     C133276   4.089  15.651   6.654  0.5219  0.0590 -0.6280
 3026UDC     C233277   3.959  15.635   6.733  0.3034 -0.1984  1.7595
 3026UDC     C333278   3.971  15.682   6.877  0.0225  1.1653 -0.1899
 3026UDC     C433279   3.837  15.702   6.939  0.7049  0.1702 -0.9090
 3026UDC     C533280   3.756  15.822   6.888  0.5456  0.6565  0.1660
 3026UDC     C633281   3.698  15.831   6.747 -0.3225 -0.6893  0.9508
 3026UDC     C733282   3.625  15.966   6.743 -1.3389 -0.6902  0.2997
 3026UDC     C833283   3.624  16.027   6.601  0.1672 -0.3491  0.8384
 3026UDC     C933284   3.510  15.951   6.522  0.4947  0.7374 -0.7116
 3026UDC    C1033285   3.362  15.942   6.567  0.2938 -1.0156  0.2844
 3026UDC    C1133286   3.273  15.820   6.531 -0.2731 -0.5524  0.5090
 3027UDC     C133287   4.452  15.097   5.099  0.4997  0.2838 -0.7944
 3027UDC     C233288   4.584  15.162   5.050 -0.7136  1.2507 -0.1770
 3027UDC     C333289   4.687  15.096   5.146  0.7041 -0.0376 -0.1962
 3027UDC     C433290   4.796  15.193   5.196 -0.7728  0.2837 -0.2839
 3027UDC     C533291   4.868  15.137   5.317 -1.1207 -0.0798  0.0831
 3027UDC     C633292   4.958  15.252   5.379 -0.4844  0.2869  0.3185
 3027UDC     C733293   5.053  15.327   5.274  0.4731  0.1648  1.2590
 3027UDC     C833294   5.135  15.423   5.363  0.7218 -0.8300 -0.3328
 3027UDC     C933295   5.225  15.514   5.280  0.5087  0.1859  0.8294
 3027UDC    C1033296   5.179  15.576   5.142 -0.0054  0.1266 -0.5580
 3027UDC    C1133297   5.301  15.642   5.078  0.0513 -0.5486  0.6048
 3028UDC     C133298   3.158  10.193  13.617 -0.7052 -0.4311  0.3950
 3028UDC     C233299   3.263  10.298  13.578 -0.6491  1.5196  0.0297
 3028UDC     C333300   3.217  10.431  13.534 -0.0796  0.1236  0.6595
 3028UDC     C433301   3.182  10.515  13.654 -0.7935  0.4841  0.5385
 3028UDC     C533302   3.115  10.644  13.606  0.6060  0.8141  0.4265
 3028UDC     C633303   3.115  10.757  13.700  1.0539 -0.2958  0.0126
 3028UDC     C733304   2.995  10.854  13.690  0.6569  0.7557 -0.6420
 3028UDC     C833305   2.848  10.795  13.700  0.7563 -0.7838 -0.6843
 3028UDC     C933306   2.774  10.827  13.569 -0.2009 -0.5394  0.5297
 3028UDC    C1033307   2.803  10.768  13.434 -0.6830 -1.0996  0.9926
 3028UDC    C1133308   2.778  10.615  13.421 -0.8186 -0.0615  0.2142
 3029UDC     C133309   1.685   1.168   8.012 -0.1600  1.3012  0.3324
 3029UDC     C233310   1.681   1.154   7.856  0.4034 -0.2115 -0.1300
 3029UDC     C333311   1.743   1.279   7.791 -0.6633  0.2667 -1.0138
 3029UDC     C433312   1.694   1.424   7.821  0.2095  0.6304  0.6191
 3029UDC     C533313   1.794   1.528   7.758 -0.4140  0.9682 -1.0832
 3029UDC     C633314   1.733   1.665   7.757  0.2056 -0.9728  0.4007
 3029UDC     C733315   1.599   1.652   7.673 -0.8973 -0.3397 -0.9428
 3029UDC     C833316   1.628   1.657   7.524  0.1007  0.0577 -0.8991
 3029UDC     C933317   1.488   1.637   7.450  0.2432 -0.2561 -0.2367
 3029UDC    C1033318   1.510   1.640   7.297 -0.7313  0.4382  0.6333
 3029UDC    C1133319   1.390   1.654   7.208 -0.3309 -0.3557 -0.0456
 3030UDC     C133320   9.942   1.274  19.658 -0.6649 -0.3865  0.8647
 3030UDC     C233321   9.797   1.255  19.675  0.1420 -0.0108  0.0394
 3030UDC     C333322   9.748   1.222  19.815  0.0047 -0.8561 -0.7181
 3030UDC     C433323   9.597   1.227  19.854  0.0496  0.3396  0.0150
 3030UDC     C533324   9.516   1.123  19.767  0.5626  0.4781 -0.3737
 3030UDC     C633325   9.526   0.968  19.785 -1.4275  0.3184 -0.2088
 3030UDC     C733326   9.449   0.885  19.680  0.8105 -0.2160 -0.6906
 3030UDC     C833327   9.374   0.769  19.755  0.0533  0.6541 -0.0248
 3030UDC     C933328   9.307   0.676  19.653 -0.5374 -0.0100 -0.4086
 3030UDC    C1033329   9.308   0.521  19.679 -0.7396 -0.5960 -0.1953
 3030UDC    C1133330   9.250   0.438  19.563  0.4965  0.1174 -0.6255
 3031UDC     C133331   9.864  13.565  11.842 -0.1666 -1.0273 -0.5092
 3031UDC     C233332   9.811  13.458  11.933  0.3789 -0.8431  1.4831
 3031UDC     C333333   9.792  13.488  12.082 -0.9608  1.7140  0.3559
 3031UDC     C433334   9.656  13.453  12.125 -0.0698  0.4665 -0.7833
 3031UDC     C533335   9.626  13.471  12.283  0.9099 -0.6722  1.4074
 3031UDC     C633336   9.481  13.430  12.334 -0.1877  0.4446  0.2539
 3031UDC     C733337   9.482  13.461  12.486 -1.1686 -0.5612 -0.0350
 3031UDC     C833338   9.506  13.345  12.589  0.3835 -0.0261  0.8216
 3031UDC     C933339   9.383  13.254  12.607 -0.6846  0.0408 -0.1942
 3031UDC    C1033340   9.421  13.151  12.717  0.2137 -0.7548 -0.0582
 3031UDC    C1133341   9.523  13.225  12.809 -0.8186  0.2288  0.1570
 3032UDC     C133342  13.348   5.502  15.067 -1.5530 -0.5273  0.3261
 3032UDC     C233343  13.334   5.368  15.127 -0.3432  1.0471  0.9211
 3032UDC     C333344  13.254   5.272  15.031 -0.7052  0.6183  0.0881
 3032UDC     C433345  13.148   5.172  15.091 -0.4719 -1.0285 -0.5488
 3032UDC     C533346  13.115   5.071  14.979 -0.3708 -0.0932  0.1899
 3032UDC     C633347  13.080   4.937  15.042 -0.1882 -0.5398 -0.6936
 3032UDC     C733348  13.007   4.959  15.178 -0.3290 -0.2570  0.7840
 3032UDC     C833349  12.992   4.824  15.267 -0.2738 -0.2709  0.2891
 3032UDC     C933350  12.841   4.772  15.272  0.3216 -0.5269 -0.4508
 3032UDC    C1033351  12.752   4.847  15.370 -0.1875  0.1241  0.2310
 3032UDC    C1133352  12.636   4.749  15.413 -0.3147  0.6656  0.6320
 3033UDC     C133353   2.616   9.312  13.975 -0.2654  0.9287  0.4338
 3033UDC     C233354   2.729   9.407  13.947  0.3779  1.0572 -0.0148
 3033UDC     C333355   2.790   9.474  14.063 -0.5151 -0.5514 -0.3340
 3033UDC     C433356   2.882   9.598  14.037  0.1123  0.2728  0.7555
 3033UDC     C533357   2.848   9.700  13.933 -0.4633 -0.0961  1.4641
 3033UDC     C633358   2.958   9.806  13.917  0.7581  0.2578 -0.0917
 3033UDC     C733359   2.916   9.903  13.803  1.3440  0.8723 -0.5903
 3033UDC     C833360   2.782   9.995  13.813 -0.0258  0.5820 -0.1284
 3033UDC     C933361   2.786  10.122  13.892 -1.2804 -0.5935 -0.3891
 3033UDC    C1033362   2.652  10.188  13.878 -0.8883 -0.3072 -1.9391
 3033UDC    C1133363   2.601  10.224  13.740 -0.0077 -0.1499 -0.2092
 3034UDC     C133364   2.758   8.673   2.089 -0.0651  0.4910 -0.3377
 3034UDC     C233365   2.820   8.550   2.161  1.0341  0.2990 -0.2976
 3034UDC     C333366   2.778   8.525   2.302 -0.1905  0.2939 -1.3011
 3034UDC     C433367   2.630   8.515   2.346 -1.0609  0.2015  0.3623
 3034UDC     C533368   2.603   8.371   2.392  0.1152  0.0898 -1.0431
 3034UDC     C633369   2.713   8.326   2.486  0.3493  0.0791 -0.0803
 3034UDC     C733370   2.671   8.205   2.567  0.5331  0.2530  0.0290
 3034UDC     C833371   2.784   8.165   2.655  0.2503  0.8025  0.2896
 3034UDC     C933372   2.778   8.039   2.749  0.5770 -1.4153 -0.0283
 3034UDC    C1033373   2.894   7.997   2.832 -0.0194  0.3480 -0.1964
 3034UDC    C1133374   3.016   7.941   2.768  0.4336 -0.0745 -0.4250
 3035UDC     C133375  18.091   9.100   3.007  0.6526  0.4763  0.5221
 3035UDC     C233376  17.985   9.214   2.974 -0.2334  0.7858 -0.7501
 3035UDC     C333377  17.840   9.155   2.975 -0.4271 -0.6398 -0.8415
 3035UDC     C433378  17.732   9.260   2.930 -0.3350 -0.5434 -0.7837
 3035UDC     C533379  17.639   9.301   3.042  0.6854  0.3375  0.6782
 3035UDC     C633380  17.532   9.402   3.000 -0.1858  1.0240  0.4717
 3035UDC     C733381  17.444   9.361   2.883  0.1707  0.0588 -0.2700
 3035UDC     C833382  17.347   9.466   2.841 -0.4516 -0.3489  0.2140
 3035UDC     C933383  17.268   9.391   2.727 -0.0899  0.1041 -0.6338
 3035UDC    C1033384  17.239   9.478   2.607 -0.5176  0.1963  0.7372
 3035UDC    C1133385  17.363   9.530   2.542  0.3549 -0.4448  0.3057
 3036UDC     C133386   1.329   3.634  17.619  0.2848  0.2114  1.0615
 3036UDC     C233387   1.224   3.744  17.634 -0.7622 -0.4384 -1.0943
 3036UDC     C333388   1.270   3.857  17.720  0.5648  0.2440  0.5056
 3036UDC     C433389   1.160   3.969  17.748 -0.7241  0.1605 -0.2520
 3036UDC     C533390   1.094   4.007  17.620  0.0932 -0.5620 -0.2541
 3036UDC     C633391   1.181   4.078  17.520 -0.6840  0.5747  0.1337
 3036UDC     C733392   1.125   4.100  17.381 -0.2752  0.4292 -0.2079
 3036UDC     C833393   0.983   4.153  17.399 -0.9047 -0.1628 -0.4148
 3036UDC     C933394   0.884   4.126  17.287 -0.8525 -0.1737 -0.3552
 3036UDC    C1033395   0.852   3.976  17.256 -0.0330  0.4452 -0.4518
 3036UDC    C1133396   0.902   3.913  17.131  0.6614  1.7618 -0.6563
 3037UDC     C133397   9.129  12.427  10.715 -0.1212 -0.7432  0.2247
 3037UDC     C233398   9.233  12.507  10.793 -0.3363  1.2414 -0.1139
 3037UDC     C333399   9.341  12.397  10.846  0.2162 -0.8055  0.4055
 3037UDC     C433400   9.429  12.456  10.967  1.4536 -0.3902  0.6703
 3037UDC     C533401   9.532  12.344  11.015  0.1799  0.7698 -0.4931
 3037UDC     C633402   9.474  12.246  11.111  0.1183 -0.0226 -0.6948
 3037UDC     C733403   9.563  12.143  11.177 -0.9782 -0.0809 -0.4307
 3037UDC     C833404   9.563  12.165  11.328  0.3506 -1.4214  0.0166
 3037UDC     C933405   9.671  12.102  11.421  0.1278 -0.0851 -0.1635
 3037UDC    C1033406   9.665  12.173  11.558  0.2311 -0.0341  0.2360
 3037UDC    C1133407   9.791  12.154  11.642  0.0290 -0.5755  0.2587
 3038UDC     C133408  13.502  10.300  18.290 -0.4686 -0.3807  0.1471
 3038UDC     C233409  13.485  10.270  18.131 -0.0654  0.5597 -0.0419
 3038UDC     C333410  13.423  10.131  18.104  0.4869 -0.7847 -0.8750
 3038UDC     C433411  13.274  10.128  18.137  0.6703  0.2801  0.9647
 3038UDC     C533412  13.193  10.197  18.026  0.0598 -0.3759 -0.6889
 3038UDC     C633413  13.161  10.097  17.904 -0.3099  0.3139 -0.0525
 3038UDC     C733414  13.273  10.057  17.813 -1.4083  0.1521  0.2903
 3038UDC     C833415  13.260   9.919  17.763  0.3818  0.9689 -0.6297
 3038UDC     C933416  13.252   9.822  17.878 -0.6342 -1.1221 -0.4626
 3038UDC    C1033417  13.221   9.679  17.847  0.1435  0.8685  0.0050
 3038UDC    C1133418  13.122   9.613  17.954 -0.5215 -0.1386 -0.3286
 3039UDC     C133419  13.994   0.742   1.807  0.5885 -0.2525  0.3860
 3039UDC     C233420  14.006   0.819   1.678  0.1683 -0.8734 -0.5794
 3039UDC     C333421  14.122   0.788   1.583  0.2075  1.2538 -0.2039
 3039UDC     C433422  14.257   0.773   1.662  0.4172  0.4932 -0.0497
 3039UDC     C533423  14.379   0.766   1.562 -0.3495 -0.0177  0.1603
 3039UDC     C633424  14.404   0.912   1.524 -0.6128  0.6340  0.0996
 3039UDC     C733425  14.507   0.983   1.609  0.8432 -0.1903 -0.0630
 3039UDC     C833426  14.646   0.914   1.598 -0.3340 -0.6080 -0.2657
 3039UDC     C933427  14.747   0.987   1.509 -0.2861  0.0558  0.6976
 3039UDC    C1033428  14.713   0.997   1.361 -0.7954 -0.3500  0.1279
 3039UDC    C1133429  14.772   1.121   1.292  0.2842  0.4205  0.6043
 3040UDC     C133430  13.807  14.031  16.616 -0.6572 -0.4407  0.0027
 3040UDC     C233431  13.664  13.989  16.639  0.4279  0.0180  0.3710
 3040UDC     C333432  13.639  13.969  16.792  0.8476 -0.1108  0.7962
 3040UDC     C433433  13.517  13.879  16.824  0.4883 -0.0538 -0.2707
 3040UDC     C533434  13.403  13.918  16.724 -0.0597 -0.3714  0.1461
 3040UDC     C633435  13.271  13.841  16.704  0.2042 -1.1178 -0.6387
 3040UDC     C733436  13.193  13.929  16.614  0.1572 -0.2744  0.6651
 3040UDC     C833437  13.043  13.874  16.588 -0.3391  1.2809 -0.1665
 3040UDC     C933438  12.976  13.957  16.481  0.9536  1.1650  0.8011
 3040UDC    C1033439  12.829  13.897  16.493 -0.0318 -0.5255 -0.0038
 3040UDC    C1133440  12.731  13.937  16.607  0.2491 -0.3409  0.4404
 3041UDC     C133441   0.487  11.002  17.234  0.4631 -0.2144 -0.0042
 3041UDC     C233442   0.512  11.148  17.276 -0.4063 -0.4396 -0.7911
 3041UDC     C333443   0.435  11.182  17.400 -0.0648 -0.0309 -0.1748
 3041UDC     C433444   0.462  11.327  17.425 -0.5975 -1.6516  0.9175
 3041UDC     C533445   0.391  11.421  17.322 -0.2166  0.7409 -0.1629
 3041UDC     C633446   0.462  11.559  17.313 -0.5408 -0.4704  0.5681
 3041UDC     C733447   0.613  11.563  17.285  0.3447 -0.4451 -0.2398
 3041UDC     C833448   0.668  11.495  17.158  0.5522  0.9307 -0.3461
 3041UDC     C933449   0.814  11.459  17.146  0.1647 -0.6980 -0.0164
 3041UDC    C1033450   0.871  11.397  17.016  0.5124 -0.0086  0.1271
 3041UDC    C1133451   1.020  11.353  17.022 -0.2228 -0.2626 -0.2708
 3042UDC     C133452  16.771   1.716  16.209  0.3230 -0.4043  0.6704
 3042UDC     C233453  16.866   1.834  16.234 -0.3825 -0.1290 -0.0895
 3042UDC     C333454  17.014   1.808  16.208  0.4757 -0.4920 -0.7067
 3042UDC     C433455  17.100   1.933  16.249  0.0534  0.2907  0.7013
 3042UDC     C533456  17.065   1.990  16.384 -0.0234  0.1886  0.2967
 3042UDC     C633457  17.129   1.910  16.506 -0.4277  0.4954  1.3836
 3042UDC     C733458  17.159   1.976  16.640 -0.2661 -1.0303  0.5711
 3042UDC     C833459  17.036   2.016  16.734  0.6982  0.3508 -0.3960
 3042UDC     C933460  16.961   1.894  16.798  0.0186 -0.1917  0.2536
 3042UDC    C1033461  17.067   1.791  16.832  1.3829 -0.7918 -0.4333
 3042UDC    C1133462  17.019   1.648  16.802 -0.3498  0.0361  0.7109
 3043UDC     C133463  17.751  13.970   3.342 -0.2255 -0.5158  0.4077
 3043UDC     C233464  17.736  14.021   3.484 -0.4665  0.6986 -0.1481
 3043UDC     C333465  17.859  13.971   3.571  0.6283  0.1367 -1.2636
 3043UDC     C433466  17.828  13.992   3.716 -0.2563  0.9149  0.9404
 3043UDC     C533467  17.937  13.961   3.818 -0.3788  0.9599  0.1106
 3043UDC     C633468  17.977  13.809   3.822 -1.2225 -0.9144  0.2697
 3043UDC     C733469  18.067  13.804   3.945 -0.4467 -0.5934 -1.3726
 3043UDC     C833470  18.082  13.666   3.999 -0.4753  0.3585 -0.9002
 3043UDC     C933471  18.103  13.661   4.151 -0.4775  0.1133 -0.2437
 3043UDC    C1033472  18.026  13.766   4.233  0.1794 -0.4015  0.5276
 3043UDC    C1133473  17.980  13.717   4.379 -0.2070  0.0932  0.4940
 3044UDC     C133474   4.937   0.870   6.792  0.9902  0.1588 -0.4868
 3044UDC     C233475   4.909   1.005   6.725 -0.0266  0.3766 -0.0787
 3044UDC     C333476   4.860   1.004   6.574  0.1066 -1.1600  0.1240
 3044UDC     C433477   4.957   0.942   6.472 -1.3181 -0.0221  0.7151
 3044UDC     C533478   4.887   0.855   6.363  0.1380  0.1323 -0.4336
 3044UDC     C633479   4.960   0.736   6.312  0.8280  0.1013  0.1209
 3044UDC     C733480   4.959   0.724   6.154 -1.0714  0.1882  0.5485
 3044UDC     C833481   5.097   0.675   6.090  0.2461 -0.1619 -0.9159
 3044UDC     C933482   5.205   0.785   6.118 -0.5186  0.1287  0.4010
 3044UDC    C1033483   5.341   0.783   6.044  0.3089  0.3709  0.6446
 3044UDC    C1133484   5.423   0.908   6.029 -0.1610 -0.1292  0.4763
 3045UDC     C133485   0.657  15.012  12.414  0.3013  0.9521  0.8574
 3045UDC     C233486   0.637  15.100  12.289 -0.3040  0.5682  0.0250
 3045UDC     C333487   0.780  15.117  12.232 -1.0215  1.2785 -0.2346
 3045UDC     C433488   0.829  15.001  12.149 -2.0059 -0.5189  0.6070
 3045UDC     C533489   0.979  14.948  12.166  0.5620 -0.3155  1.0104
 3045UDC     C633490   1.090  15.041  12.113  0.5490 -0.3771 -0.2723
 3045UDC     C733491   1.236  14.992  12.143 -0.0616  0.2503  0.8027
 3045UDC     C833492   1.258  14.968  12.290  1.2576 -0.2645 -0.2090
 3045UDC     C933493   1.400  14.927  12.311 -0.3787 -1.0973 -0.6362
 3045UDC    C1033494   1.444  14.879  12.454 -0.2002  0.5895 -0.3370
 3045UDC    C1133495   1.587  14.812  12.458 -0.6139  0.5978  0.0094
 3046UDC     C133496   0.889   2.803   3.479  0.2355 -0.9249  0.4492
 3046UDC     C233497   0.911   2.717   3.604 -0.5919 -0.7890  0.5533
 3046UDC     C333498   0.791   2.695   3.698  0.4562 -0.4356  0.1049
 3046UDC     C433499   0.755   2.841   3.742 -0.6541 -0.1205 -0.2736
 3046UDC     C533500   0.839   2.907   3.857 -0.0597 -0.1605  0.7737
 3046UDC     C633501   0.763   2.984   3.970 -0.0344  0.6834  0.6013
 3046UDC     C733502   0.846   3.056   4.078  0.7812 -0.3986  0.3201
 3046UDC     C833503   0.887   2.978   4.206  0.8232  0.7083 -1.2464
 3046UDC     C933504   0.941   2.836   4.194  0.4198 -0.3092  0.4149
 3046UDC    C1033505   0.971   2.775   4.330 -0.1274 -0.0399  0.0828
 3046UDC    C1133506   0.845   2.780   4.420 -0.0561 -0.2012  0.8323
 3047UDC     C133507  19.362  14.410   6.559 -0.4792  0.8007 -1.7375
 3047UDC     C233508  19.231  14.361   6.616  0.1903  0.3563  0.1823
 3047UDC     C333509  19.204  14.229   6.548  0.4516  1.0037  0.9170
 3047UDC     C433510  19.063  14.177   6.534 -0.5032  0.3598 -1.1026
 3047UDC     C533511  18.954  14.277   6.507 -0.4973 -0.3562 -0.0524
 3047UDC     C633512  18.898  14.359   6.622  0.1014  0.9436 -0.4773
 3047UDC     C733513  18.769  14.305   6.681  0.5437 -0.0746  0.0718
 3047UDC     C833514  18.770  14.174   6.765 -0.2584 -0.6626  0.2948
 3047UDC     C933515  18.633  14.131   6.809  0.1309 -0.0228 -1.0259
 3047UDC    C1033516  18.554  14.094   6.682 -0.3970  0.0018  0.2907
 3047UDC    C1133517  18.467  13.965   6.682 -0.6781 -0.1585  0.0001
 3048UDC     C133518  11.809  12.483   0.070 -1.0399 -0.2460  0.8715
 3048UDC     C233519  11.873  12.585   0.167  0.3808  0.0343  0.7779
 3048UDC     C333520  12.028  12.569   0.168  0.4912 -0.0159  0.1621
 3048UDC     C433521  12.090  12.613   0.034 -0.1987  0.5153  0.5475
 3048UDC     C533522  12.211  12.529  -0.006 -0.7059  0.8276  0.7241
 3048UDC     C633523  12.334  12.522   0.090  0.3648 -0.3448 -0.2677
 3048UDC     C733524  12.396  12.381   0.087  1.0488 -0.6374 -0.2613
 3048UDC     C833525  12.493  12.373   0.207  0.9563 -0.1534  0.3434
 3048UDC     C933526  12.500  12.243   0.287  0.1821 -0.1504  0.0593
 3048UDC    C1033527  12.631  12.233   0.364 -0.0956  0.5878  0.0435
 3048UDC    C1133528  12.760  12.214   0.290  1.0941 -0.3716 -0.0058
 3049UDC     C133529  19.210   7.600  16.794  0.2433 -0.2186  0.7324
 3049UDC     C233530  19.182   7.710  16.688  0.2850 -0.2870 -0.3606
 3049UDC     C333531  19.192   7.670  16.535  0.1976 -0.0475 -0.4279
 3049UDC     C433532  19.183   7.784  16.431 -1.1535  0.6096  0.2851
 3049UDC     C533533  19.275   7.747  16.315  0.2480 -0.0998 -1.5399
 3049UDC     C633534  19.291   7.863  16.206  0.2279  0.1709  1.2530
 3049UDC     C733535  19.167   7.927  16.131 -0.1332 -0.1919 -0.8189
 3049UDC     C833536  19.183   7.985  15.988 -0.3310  0.5409  0.5355
 3049UDC     C933537  19.137   7.884  15.876  0.5574 -0.1588  0.1542
 3049UDC    C1033538  18.995   7.826  15.887  0.1298  0.8840 -0.8279
 3049UDC    C1133539  18.962   7.694  15.818 -0.3025  0.7470 -0.3593
 3050UDC     C133540  10.937   3.690  17.670  0.2346 -0.8543 -0.9005
 3050UDC     C233541  11.010   3.757  17.784  0.2672 -0.0918  0.3304
 3050UDC     C333542  10.935   3.889  17.822 -0.1896 -0.5745 -0.6397
 3050UDC     C433543  10.795   3.860  17.873  0.8581  0.0090  0.0169
 3050UDC     C533544  10.708   3.984  17.892  0.1519  0.7882 -0.0410
 3050UDC     C633545  10.594   3.978  17.991 -0.7642  0.3721 -0.2187
 3050UDC     C733546  10.454   3.957  17.922  0.8407  0.9994 -0.1555
 3050UDC     C833547  10.367   3.827  17.946  0.4673  0.0553  0.0762
 3050UDC     C933548  10.259   3.868  18.048 -0.2278  0.3585  0.2657
 3050UDC    C1033549  10.118   3.856  17.977 -0.1246 -1.1131  0.0993
 3050UDC    C1133550  10.092   3.717  17.917  0.4255  0.6424 -0.6787
 3051UDC     C133551  14.885  14.139  13.052  0.2519  0.1092  0.3648
 3051UDC     C233552  15.005  14.051  13.083  0.2726 -0.1683 -0.1458
 3051UDC     C333553  15.063  14.004  12.952 -0.2528  0.3039  0.4594
 3051UDC     C433554  15.212  13.977  12.945  0.0136  0.6062  0.9308
 3051UDC     C533555  15.261  13.915  12.808 -0.1735  0.0475  0.4351
 3051UDC     C633556  15.404  13.857  12.813 -0.0163 -0.4830 -0.0772
 3051UDC     C733557  15.416  13.804  12.953  0.8042 -0.0421 -1.1929
 3051UDC     C833558  15.552  13.796  13.009  0.0872 -0.0022  0.2012
 3051UDC     C933559  15.595  13.720  13.133  1.0883 -0.7567  0.4562
 3051UDC    C1033560  15.733  13.791  13.162  0.4465  0.0214 -0.2320
 3051UDC    C1133561  15.814  13.731  13.284  0.1675  0.2631  0.1984
 3052UDC     C133562   8.837   0.602  10.776  0.9559  0.6768 -0.1167
 3052UDC     C233563   8.951   0.570  10.864 -0.5722  0.4938  0.0749
 3052UDC     C333564   8.927   0.546  11.014 -0.2636  0.8849  1.0109
 3052UDC     C433565   9.057   0.545  11.086 -0.2290 -0.4821 -0.0143
 3052UDC     C533566   9.106   0.405  11.123  0.3602 -0.2664 -0.3591
 3052UDC     C633567   9.253   0.421  11.165  0.3729  0.8438 -1.1662
 3052UDC     C733568   9.280   0.489  11.300  0.7261  0.0513  0.2550
 3052UDC     C833569   9.421   0.478  11.366  0.0843 -1.2155  0.0389
 3052UDC     C933570   9.443   0.417  11.506 -0.4929 -1.0428  0.2315
 3052UDC    C1033571   9.569   0.496  11.567 -0.7916 -0.3162 -0.5727
 3052UDC    C1133572   9.674   0.391  11.619 -0.8419  0.2202 -0.4771
 3053UDC     C133573   4.460  18.937  12.820  1.4023 -0.2284  0.1530
 3053UDC     C233574   4.515  19.080  12.817  0.6186  0.4052  0.1283
 3053UDC     C333575   4.412  19.188  12.793 -0.1087 -0.3129 -0.3660
 3053UDC     C433576   4.268  19.156  12.737  0.8676 -0.3308 -0.0507
 3053UDC     C533577   4.209  19.267  12.653 -0.1582  0.1333 -0.0399
 3053UDC     C633578   4.141  19.374  12.739 -0.2796  0.4132  0.6458
 3053UDC     C733579   4.022  19.443  12.672 -0.4885 -0.2649 -0.6166
 3053UDC     C833580   3.997  19.569  12.751 -0.3612  0.7213 -1.0414
 3053UDC     C933581   3.894  19.562  12.865 -0.2074 -0.7292 -0.1217
 3053UDC    C1033582   3.901  19.694  12.944  0.0515 -0.0503 -0.1119
 3053UDC    C1133583   4.015  19.712  13.044 -0.0764  0.8284 -0.7350
 3054UDC     C133584  12.222  10.860  19.596 -0.7820  0.7596 -0.9768
 3054UDC     C233585  12.123  10.801  19.496  0.1249 -0.1403 -0.1902
 3054UDC     C333586  11.970  10.821  19.535  0.4232 -0.9381 -0.2989
 3054UDC     C433587  11.862  10.818  19.431 -0.0283 -0.0102  0.1808
 3054UDC     C533588  11.717  10.824  19.480 -0.1868  0.4780 -0.9850
 3054UDC     C633589  11.610  10.783  19.380 -0.4115 -0.9821 -0.7954
 3054UDC     C733590  11.615  10.848  19.242 -0.1046 -1.0062  0.2623
 3054UDC     C833591  11.556  10.835  19.097 -1.2193  0.1161 -0.7352
 3054UDC     C933592  11.640  10.901  18.986 -0.1355  0.1350 -0.4695
 3054UDC    C1033593  11.780  10.859  18.976 -0.1812 -0.2222  0.4663
 3054UDC    C1133594  11.856  10.938  18.874 -0.4327 -0.7468  0.4548
 3055UDC     C133595  16.263   0.535  18.541  0.6005  0.7059  0.1887
 3055UDC     C233596  16.115   0.584  18.514 -0.0986 -0.0414 -0.2849
 3055UDC     C333597  16.018   0.482  18.584 -0.5284 -0.7926  0.8444
 3055UDC     C433598  15.874   0.534  18.587  0.2671  0.4489 -0.1493
 3055UDC     C533599  15.863   0.685  18.621 -0.7179  0.2693  0.2937
 3055UDC     C633600  15.735   0.761  18.618  0.3457  0.1718 -0.5274
 3055UDC     C733601  15.777   0.908  18.617 -0.3356 -0.7457 -0.3414
 3055UDC     C833602  15.679   1.004  18.690 -0.3492  0.8362 -0.1999
 3055UDC     C933603  15.720   1.155  18.692  0.4139  0.6805 -0.0971
 3055UDC    C1033604  15.641   1.208  18.574 -0.1660 -0.9951 -0.3517
 3055UDC    C1133605  15.685   1.202  18.430 -0.0588  0.9777  0.9444
 3056UDC     C133606   8.332  17.731   5.593 -0.1469 -0.8812  0.5975
 3056UDC     C233607   8.186  17.689   5.539 -0.4469  0.3119  0.3456
 3056UDC     C333608   8.107  17.786   5.449 -0.6993 -0.4184 -1.3968
 3056UDC     C433609   8.004  17.723   5.358  0.6495  0.2531  1.0276
 3056UDC     C533610   8.070  17.646   5.240 -0.8230 -0.7263 -0.9966
 3056UDC     C633611   8.171  17.717   5.147 -0.9694 -0.0637  0.3325
 3056UDC     C733612   8.140  17.780   5.012 -1.0181 -0.2608 -0.0704
 3056UDC     C833613   8.240  17.748   4.907 -0.5259 -0.1532  0.9437
 3056UDC     C933614   8.225  17.803   4.764  0.3690  0.0704 -1.8343
 3056UDC    C1033615   8.319  17.744   4.658 -0.0827 -1.5051 -0.6408
 3056UDC    C1133616   8.314  17.823   4.525  0.6090  1.1804  1.0818
 3057UDC     C133617   2.599  14.806  15.186  0.6866  1.0006  0.3800
 3057UDC     C233618   2.515  14.781  15.057  0.2748 -0.4433 -1.6281
 3057UDC     C333619   2.583  14.676  14.958  0.7503 -0.1354  0.1867
 3057UDC     C433620   2.737  14.693  14.956 -0.5478  0.1938 -0.3574
 3057UDC     C533621   2.807  14.784  14.852 -0.1526 -0.1949  0.3839
 3057UDC     C633622   2.712  14.879  14.773 -1.1699 -0.4774 -0.1960
 3057UDC     C733623   2.735  15.016  14.818 -0.4076 -0.7213  0.4963
 3057UDC     C833624   2.636  15.120  14.774  0.0230 -0.0849 -0.6859
 3057UDC     C933625   2.684  15.263  14.781 -0.8712 -0.7952 -0.6440
 3057UDC    C1033626   2.799  15.291  14.694 -0.3758  0.2752 -0.0228
 3057UDC    C1133627   2.804  15.445  14.667 -0.7881 -0.5167  0.5217
 3058UDC     C133628  15.544  18.255   6.342  0.9473  0.4863  0.6818
 3058UDC     C233629  15.517  18.368   6.244  1.0896 -0.8765  0.4244
 3058UDC     C333630  15.597  18.354   6.118 -0.0042  0.4555 -0.1593
 3058UDC     C433631  15.611  18.204   6.075 -1.5707 -0.1825 -1.1489
 3058UDC     C533632  15.645  18.199   5.922  0.1404 -0.8846  0.4523
 3058UDC     C633633  15.731  18.077   5.877 -0.5263  0.0670  0.3924
 3058UDC     C733634  15.763  18.075   5.726  0.6537 -0.2013  0.5995
 3058UDC     C833635  15.860  17.960   5.670  0.4475 -0.0768 -0.4270
 3058UDC     C933636  15.824  17.818   5.727  0.2739 -0.5655  0.1495
 3058UDC    C1033637  15.925  17.714   5.712  0.3406  0.7452 -0.3882
 3058UDC    C1133638  16.072  17.754   5.730 -0.1276  0.4463 -0.0495
 3059UDC     C133639   1.747  14.682   5.475 -0.2704  0.9814 -0.6475
 3059UDC     C233640   1.684  14.810   5.542  0.2966 -0.9587  0.5622
 3059UDC     C333641   1.794  14.909   5.592 -0.7009  0.2372 -0.5250
 3059UDC     C433642   1.766  15.048   5.643  0.1338 -0.5654 -0.4144
 3059UDC     C533643   1.777  15.158   5.536  0.1288  0.0130  0.6035
 3059UDC     C633644   1.893  15.193   5.454  1.3957 -0.3520  0.6945
 3059UDC     C733645   1.995  15.289   5.521  0.2445 -0.9938  0.1058
 3059UDC     C833646   2.008  15.405   5.425 -0.3426 -0.4185  0.4043
 3059UDC     C933647   2.138  15.484   5.468  0.4450 -0.1307  0.8499
 3059UDC    C1033648   2.168  15.588   5.353  0.1172 -0.1775 -0.8913
 3059UDC    C1133649   2.146  15.511   5.219  0.6817  0.3798 -0.0482
 3060UDC     C133650   6.867  10.525  17.221  0.2811 -0.9324 -0.9817
 3060UDC     C233651   6.934  10.669  17.211  0.8749  0.8022  0.3416
 3060UDC     C333652   7.075  10.688  17.275  0.3432  0.3283  0.0270
 3060UDC     C433653   7.187  10.727  17.183  0.0544  0.0057  1.1236
 3060UDC     C533654   7.330  10.731  17.245  0.1638 -0.1506  0.0969
 3060UDC     C633655   7.448  10.721  17.148  0.0891  0.9823 -0.8645
 3060UDC     C733656   7.585  10.700  17.222 -0.1768 -0.8428  0.5779
 3060UDC     C833657   7.711  10.678  17.124 -0.3712  1.3702 -0.1700
 3060UDC     C933658   7.666  10.610  16.990 -0.6212 -0.0439 -0.2899
 3060UDC    C1033659   7.781  10.553  16.902  0.2967  0.6331  0.4293
 3060UDC    C1133660   7.814  10.640  16.785  0.3667  0.6247 -1.1577
 3061UDC     C133661   6.106   6.442  12.008  0.1486  0.5856  1.5296
 3061UDC     C233662   6.227   6.414  11.911  0.0188 -0.2673  0.0961
 3061UDC     C333663   6.331   6.526  11.927  0.5509 -0.1978  0.3327
 3061UDC     C433664   6.403   6.568  12.054  0.0567  0.6502 -0.7724
 3061UDC     C533665   6.504   6.459  12.118  0.2062  0.4970 -0.5547
 3061UDC     C633666   6.604   6.525  12.211 -0.2236 -0.1130  0.8120
 3061UDC     C733667   6.687   6.628  12.129 -0.6923  1.2584 -0.5244
 3061UDC     C833668   6.788   6.568  12.024  0.9579  0.6698 -0.4406
 3061UDC     C933669   6.882   6.456  12.078  0.5669 -1.0591  0.1823
 3061UDC    C1033670   6.985   6.396  11.983  0.3104  0.0079 -0.8212
 3061UDC    C1133671   7.105   6.316  12.046  0.5558 -0.3044  0.1624
 3062UDC     C133672   1.921   2.788   8.061  0.4584 -0.0064  0.0135
 3062UDC     C233673   1.887   2.933   8.080 -0.3373  0.7280  0.3232
 3062UDC     C333674   1.930   3.033   7.973  0.5944  0.2000  0.4543
 3062UDC     C433675   1.882   3.175   7.966 -0.5535  0.1486  0.1463
 3062UDC     C533676   1.907   3.229   7.824 -0.9294 -0.0149 -0.1556
 3062UDC     C633677   1.874   3.374   7.778  0.3760  0.2142  0.4613
 3062UDC     C733678   1.832   3.381   7.631  0.6177 -1.1899 -0.4255
 3062UDC     C833679   1.748   3.500   7.581 -0.7008 -1.4403 -0.2656
 3062UDC     C933680   1.703   3.526   7.442 -0.4838 -0.1315 -0.1047
 3062UDC    C1033681   1.585   3.440   7.391  0.7878 -0.1689 -0.4173
 3062UDC    C1133682   1.612   3.299   7.351 -0.6090  0.2407  0.3942
 3063UDC     C133683   6.098   2.538   8.256 -0.4430 -0.4072  0.9701
 3063UDC     C233684   5.999   2.571   8.369 -0.3716  0.4533 -0.5130
 3063UDC     C333685   5.913   2.695   8.360  0.4087 -0.5923  0.1533
 3063UDC     C433686   5.807   2.659   8.253  0.4244  0.3794 -0.2349
 3063UDC     C533687   5.715   2.782   8.241 -0.4819  0.1105  0.1590
 3063UDC     C633688   5.606   2.762   8.141  0.1765  0.2802  0.5572
 3063UDC     C733689   5.522   2.888   8.120 -1.0193 -0.4460  0.5193
 3063UDC     C833690   5.409   2.862   8.029  0.0692  0.2249  0.5681
 3063UDC     C933691   5.319   2.990   8.040  0.6296 -0.6993 -0.2068
 3063UDC    C1033692   5.348   3.132   7.983  0.7365 -0.8138 -0.9005
 3063UDC    C1133693   5.235   3.235   8.006 -0.3539 -0.0930 -0.6137
 3064UDC     C133694  10.175  11.304  11.480  1.4366  0.4584 -0.6315
 3064UDC     C233695  10.210  11.448  11.447 -0.3620 -0.2237 -0.1728
 3064UDC     C333696  10.208  11.531  11.582  0.0292  0.0702  0.5816
 3064UDC     C433697  10.076  11.516  11.661 -0.2386 -0.1536 -0.2887
 3064UDC     C533698  10.099  11.546  11.812  1.5824 -0.3388  0.5635
 3064UDC     C633699  10.233  11.476  11.832 -0.2072  0.5009 -0.0580
 3064UDC     C733700  10.271  11.482  11.982  0.6127 -0.8040  0.3155
 3064UDC     C833701  10.374  11.369  12.005  0.0136 -0.6308 -0.1392
 3064UDC     C933702  10.376  11.305  12.145 -0.1669 -0.0013 -0.5873
 3064UDC    C1033703  10.384  11.401  12.263 -0.0588 -0.0874  0.3368
 3064UDC    C1133704  10.431  11.332  12.393 -0.0351 -0.3030  0.0399
 3065UDC     C133705  19.507  10.922  11.466  0.4714  1.7463 -0.3161
 3065UDC     C233706  19.504  10.778  11.533 -0.2750 -0.2503 -0.4955
 3065UDC     C333707  19.407  10.702  11.444 -0.0320 -0.0298  0.2554
 3065UDC     C433708  19.391  10.546  11.462 -0.0683  0.4812 -0.8452
 3065UDC     C533709  19.344  10.484  11.592  0.8853 -0.2103  1.0488
 3065UDC     C633710  19.213  10.540  11.636  0.4520 -0.6841  0.4681
 3065UDC     C733711  19.169  10.481  11.769 -0.5372  0.2875 -0.1891
 3065UDC     C833712  19.284  10.439  11.859  0.5858  0.2815 -0.5872
 3065UDC     C933713  19.242  10.434  12.005  0.9209 -1.0941 -0.4640
 3065UDC    C1033714  19.322  10.337  12.089 -0.0026  0.1035 -1.1894
 3065UDC    C1133715  19.354  10.361  12.236 -0.5016  0.6373  0.3144
 3066UDC     C133716  11.400   4.099   6.791  0.0074  0.2526 -0.1892
 3066UDC     C233717  11.470   4.228   6.734  0.6561  0.4405 -0.1925
 3066UDC     C333718  11.522   4.224   6.592  0.4976  0.3208  0.9225
 3066UDC     C433719  11.578   4.359   6.555 -0.1389 -0.2705 -0.1545
 3066UDC     C533720  11.692   4.361   6.450 -0.5859 -0.2399 -0.1381
 3066UDC     C633721  11.771   4.493   6.459  0.1385 -0.0783  0.1378
 3066UDC     C733722  11.901   4.486   6.381 -0.1961  0.7330 -0.0395
 3066UDC     C833723  11.969   4.622   6.348 -0.1894  0.4642  0.9300
 3066UDC     C933724  12.113   4.609   6.289  0.8410 -1.0138 -0.8513
 3066UDC    C1033725  12.095   4.665   6.147  1.8485 -0.5042 -0.6853
 3066UDC    C1133726  12.004   4.586   6.043  0.0334 -0.3261 -0.7070
 3067UDC     C133727  11.746  11.160  15.811  0.3626 -0.0653  0.2275
 3067UDC     C233728  11.862  11.066  15.827 -0.3098  0.0216  0.9088
 3067UDC     C333729  11.879  10.955  15.722 -0.4392  0.3414 -0.4512
 3067UDC     C433730  12.019  10.890  15.676  0.5860 -0.1582  0.0863
 3067UDC     C533731  12.105  11.010  15.630  0.2830 -0.6031  1.1471
 3067UDC     C633732  12.236  11.034  15.698  0.2986  0.3132  0.1024
 3067UDC     C733733  12.336  11.120  15.615 -0.9137  0.8483 -0.4286
 3067UDC     C833734  12.319  11.271  15.646  1.0052 -0.7457  0.2029
 3067UDC     C933735  12.230  11.358  15.552 -0.8691  0.5825  0.7320
 3067UDC    C1033736  12.209  11.499  15.608  0.5500  0.2224  1.1545
 3067UDC    C1133737  12.065  11.550  15.631  0.3320 -0.9378 -0.3421
 3068UDC     C133738  11.716  13.565  11.139 -1.3192  0.4481 -0.0463
 3068UDC     C233739  11.654  13.508  11.257 -0.4564  0.9939 -0.0745
 3068UDC     C333740  11.706  13.588  11.377 -0.7658 -0.9413  0.8786
 3068UDC     C433741  11.667  13.551  11.526  0.4681  0.1019  0.6771
 3068UDC     C533742  11.758  13.598  11.642 -0.3060  0.1929  0.9474
 3068UDC     C633743  11.898  13.531  11.647 -0.4366  0.2917 -1.0592
 3068UDC     C733744  12.003  13.604  11.736  0.0059 -0.4815  0.0324
 3068UDC     C833745  12.142  13.543  11.729  0.7156  0.1668  0.2689
 3068UDC     C933746  12.219  13.599  11.840  0.1734 -0.7657 -0.9747
 3068UDC    C1033747  12.365  13.563  11.852 -0.5477  1.1231  1.0151
 3068UDC    C1133748  12.391  13.531  12.001  0.3958  0.7091  1.2452
 3069UDC     C133749   1.473  15.422   3.242 -0.4686  0.3986  0.8008
 3069UDC     C233750   1.415  15.354   3.363  0.5225  0.8172  0.2253
 3069UDC     C333751   1.523  15.323   3.469  0.7118 -0.3940  0.4908
 3069UDC     C433752   1.474  15.303   3.616 -1.1274 -0.2055 -0.5119
 3069UDC     C533753   1.329  15.262   3.637  0.1343  0.3448 -1.1569
 3069UDC     C633754   1.270  15.237   3.774  0.2012  0.4223 -1.0106
 3069UDC     C733755   1.300  15.354   3.874  0.5693  0.0106 -0.2959
 3069UDC     C833756   1.364  15.327   4.014  1.1213  0.3229 -0.3987
 3069UDC     C933757   1.263  15.284   4.119  0.2260 -0.3644  0.0314
 3069UDC    C1033758   1.161  15.394   4.157  0.5946 -0.8408 -0.5132
 3069UDC    C1133759   1.083  15.366   4.288 -0.3397 -0.9280 -0.6322
 3070UDC     C133760   5.490  18.655   2.242 -0.2061  0.2297  1.0667
 3070UDC     C233761   5.504  18.799   2.205 -0.4971 -0.0933 -0.2099
 3070UDC     C333762   5.574  18.822   2.068 -0.7966  0.4111  0.3878
 3070UDC     C433763   5.518  18.919   1.961  0.4688  0.1935 -0.5797
 3070UDC     C533764   5.634  18.998   1.899 -0.2811 -0.6706  0.8756
 3070UDC     C633765   5.588  19.057   1.762 -0.4605  0.1372  0.5682
 3070UDC     C733766   5.687  19.143   1.682 -0.2130  0.4826 -0.3471
 3070UDC     C833767   5.811  19.058   1.621  0.1694  0.0578  0.2516
 3070UDC     C933768   5.803  19.035   1.467 -0.8014 -0.1316 -0.9598
 3070UDC    C1033769   5.918  18.944   1.417 -0.4757 -0.0778  1.5299
 3070UDC    C1133770   5.940  18.820   1.506  0.2727  0.5380  1.4795
 3071UDC     C133771  13.367  13.292   8.883  0.1800  0.0683  0.0788
 3071UDC     C233772  13.329  13.353   9.017  0.1810 -0.5669 -0.9391
 3071UDC     C333773  13.212  13.292   9.096 -0.2630  0.2972 -1.2145
 3071UDC     C433774  13.231  13.147   9.149  0.4250 -0.3487  0.0069
 3071UDC     C533775  13.109  13.071   9.207 -0.1623  1.0921  0.2397
 3071UDC     C633776  13.159  12.952   9.296  0.1105 -0.1836  0.8169
 3071UDC     C733777  13.236  12.841   9.216  0.1452 -0.5192  1.0050
 3071UDC     C833778  13.164  12.768   9.100  0.2471  0.6249 -0.1230
 3071UDC     C933779  13.094  12.634   9.133  0.2380  0.1839 -1.2249
 3071UDC    C1033780  12.973  12.655   9.227  0.1514 -0.4159 -0.6489
 3071UDC    C1133781  12.922  12.520   9.284 -1.3242 -0.1046  0.5380
 3072UDC     C133782  18.033  17.031  19.876  0.2154  0.1167 -0.6332
 3072UDC     C233783  18.140  16.959  19.966 -0.6074 -0.5525 -0.4302
 3072UDC     C333784  18.275  17.019  19.997  0.2956  0.0228  1.0838
 3072UDC     C433785  18.376  16.920  20.052  1.2676  0.8953 -0.1751
 3072UDC     C533786  18.412  16.816  19.944  0.1117  0.0624  0.5934
 3072UDC     C633787  18.549  16.747  19.971  1.6839 -1.3808 -0.2336
 3072UDC     C733788  18.539  16.662  20.104  0.6562  0.3619 -1.0267
 3072UDC     C833789  18.519  16.509  20.115 -1.1861  0.3337  1.3152
 3072UDC     C933790  18.374  16.455  20.113 -0.3470 -0.8626 -0.8527
 3072UDC    C1033791  18.284  16.530  20.213 -0.1964  0.1438  0.0866
 3072UDC    C1133792  18.134  16.481  20.224 -0.2364  2.0174 -1.0856
 3073UDC     C133793  10.347   9.933  14.214 -0.6102 -0.8727 -0.2132
 3073UDC     C233794  10.299   9.870  14.075 -0.5560 -0.1151  2.0025
 3073UDC     C333795  10.245   9.731  14.079 -0.0131 -0.5284 -0.1156
 3073UDC     C433796  10.158   9.697  14.202 -0.4763 -0.0394 -0.2715
 3073UDC     C533797  10.100   9.558  14.186  1.0609 -0.1506 -0.3893
 3073UDC     C633798  10.174   9.439  14.240  0.2986  0.2090  0.6289
 3073UDC     C733799  10.084   9.317  14.266 -0.4743  0.7556  0.1604
 3073UDC     C833800  10.165   9.193  14.216  1.0479 -0.7389 -0.6583
 3073UDC     C933801  10.121   9.141  14.079  0.2943  1.9247  0.1719
 3073UDC    C1033802  10.195   9.005  14.038 -0.0722 -0.7620 -1.3563
 3073UDC    C1133803  10.145   8.960  13.903 -0.5230  0.1454  0.7020
 3074UDC     C133804  14.211  10.915  16.711  1.0015 -0.7489 -0.1535
 3074UDC     C233805  14.283  10.997  16.614 -0.1011 -0.5020 -0.0291
 3074UDC     C333806  14.238  11.148  16.583 -0.3693 -0.5798  0.5553
 3074UDC     C433807  14.086  11.166  16.543  0.1815  0.4118 -0.3497
 3074UDC     C533808  14.042  11.286  16.460  1.2363 -1.4722 -1.4563
 3074UDC     C633809  13.889  11.289  16.472 -0.4116 -0.8746  0.0526
 3074UDC     C733810  13.801  11.202  16.378  0.6775 -1.0228  0.4349
 3074UDC     C833811  13.685  11.130  16.443 -0.2589 -0.4281  0.2854
 3074UDC     C933812  13.595  11.068  16.344 -0.1112 -0.2661  1.1207
 3074UDC    C1033813  13.532  11.185  16.254  0.0997 -1.2617 -0.9989
 3074UDC    C1133814  13.529  11.160  16.098  0.3807  0.2592 -0.1784
 3075UDC     C133815  13.198   1.323  11.669 -0.2239 -0.4280 -1.0194
 3075UDC     C233816  13.123   1.423  11.582  0.1798  0.0950  0.4651
 3075UDC     C333817  13.200   1.556  11.569 -0.9819  0.3378 -0.8335
 3075UDC     C433818  13.348   1.553  11.525  0.5518  0.9662  0.8685
 3075UDC     C533819  13.420   1.681  11.510 -0.2140  0.5779 -0.2084
 3075UDC     C633820  13.557   1.684  11.442  0.2336 -0.9039 -1.1746
 3075UDC     C733821  13.622   1.818  11.466 -0.6936  0.3387 -0.2802
 3075UDC     C833822  13.741   1.839  11.361 -0.0466 -0.7632 -0.3115
 3075UDC     C933823  13.809   1.976  11.379 -1.0355 -0.2946 -0.9700
 3075UDC    C1033824  13.930   1.997  11.283  1.0937 -0.1630  0.6414
 3075UDC    C1133825  13.872   1.982  11.143 -0.7171 -0.4771  1.1143
 3076UDC     C133826  11.639  15.377  11.891 -0.0387  0.9271 -0.1098
 3076UDC     C233827  11.509  15.348  11.806 -0.2316 -0.0107 -1.0543
 3076UDC     C333828  11.405  15.268  11.889 -0.5896  1.0836 -1.0146
 3076UDC     C433829  11.472  15.142  11.945  0.7190  0.3767  0.9093
 3076UDC     C533830  11.377  15.038  12.011 -0.4677  0.8971  0.6260
 3076UDC     C633831  11.455  14.904  12.006  0.3534  0.3357  0.8459
 3076UDC     C733832  11.378  14.788  12.069 -0.0729  0.1006  0.7008
 3076UDC     C833833  11.473  14.680  12.099 -0.0083  0.4994  0.1486
 3076UDC     C933834  11.377  14.558  12.097  0.3635  0.0979 -0.1774
 3076UDC    C1033835  11.406  14.461  12.212 -0.7335  0.0059  1.2578
 3076UDC    C1133836  11.332  14.330  12.224 -0.9829  0.5503 -0.5224
 3077UDC     C133837  12.591  14.084   2.287 -0.8264 -0.1766 -0.3760
 3077UDC     C233838  12.533  14.210   2.213  0.1223  0.1045 -0.0335
 3077UDC     C333839  12.466  14.312   2.308 -1.2511 -1.8571  0.5030
 3077UDC     C433840  12.353  14.395   2.237 -0.4714  0.3142 -0.3985
 3077UDC     C533841  12.410  14.492   2.136 -0.5896  0.2996 -0.7936
 3077UDC     C633842  12.305  14.566   2.061  0.3326 -0.1036 -0.7232
 3077UDC     C733843  12.348  14.639   1.928 -0.5016  0.5570  0.1168
 3077UDC     C833844  12.399  14.770   1.963  0.8610 -1.4708  0.1724
 3077UDC     C933845  12.294  14.890   1.943 -0.0075 -0.5216 -0.6816
 3077UDC    C1033846  12.369  15.021   1.917 -1.1401  0.2103  0.2413
 3077UDC    C1133847  12.273  15.138   1.905  0.4609 -0.6778  0.2877
 3078UDC     C133848   9.825   8.808   6.981 -0.8880 -0.5093  0.7503
 3078UDC     C233849   9.920   8.828   7.106  0.5500 -0.1866  0.1696
 3078UDC     C333850  10.009   8.943   7.062 -0.2107  1.0994 -0.1759
 3078UDC     C433851  10.110   8.964   7.183  0.1358 -0.4975 -0.1899
 3078UDC     C533852  10.171   9.099   7.199  0.8761 -0.1123  0.5933
 3078UDC     C633853  10.250   9.145   7.079  0.5918 -0.7899  0.3296
 3078UDC     C733854  10.335   9.271   7.115  0.3613 -0.1467 -1.2456
 3078UDC     C833855  10.265   9.403   7.093 -0.2795  0.4898  0.0665
 3078UDC     C933856  10.246   9.465   7.224 -0.7351 -0.7248 -0.8867
 3078UDC    C1033857  10.181   9.604   7.236  0.6283  0.6184  1.2022
 3078UDC    C1133858  10.276   9.720   7.244  0.2280 -0.6494 -0.5598
 3079UDC     C133859   5.307  11.803   0.488  1.0326  0.0175 -0.0137
 3079UDC     C233860   5.206  11.716   0.580 -0.6130  0.3269  1.0608
 3079UDC     C333861   5.256  11.670   0.713 -0.0506 -0.1280  0.2239
 3079UDC     C433862   5.371  11.571   0.673 -0.6777  0.5838 -0.0322
 3079UDC     C533863   5.447  11.506   0.788  0.8754  0.2389 -0.6073
 3079UDC     C633864   5.595  11.464   0.780  0.5788 -0.1058 -0.6632
 3079UDC     C733865   5.635  11.388   0.905  0.3379  0.6606 -0.5483
 3079UDC     C833866   5.590  11.462   1.030  0.7462  0.5537 -0.5979
 3079UDC     C933867   5.660  11.436   1.159  0.7123  0.9021  0.0747
 3079UDC    C1033868   5.615  11.552   1.248 -0.2199  0.2826  0.6692
 3079UDC    C1133869   5.700  11.547   1.370 -0.9863  0.2728 -1.1324
 3080UDC     C133870   3.361   0.562  13.681 -0.0942  0.0505 -0.7526
 3080UDC     C233871   3.405   0.694  13.623 -0.6373 -0.0657  0.2976
 3080UDC     C333872   3.308   0.783  13.555  0.6557  0.3946  1.4307
 3080UDC     C433873   3.191   0.823  13.650  1.1378  0.5156  0.1055
 3080UDC     C533874   3.226   0.876  13.792  0.1557  0.3028  0.9230
 3080UDC     C633875   3.243   1.029  13.810 -0.1048  0.2526 -0.5610
 3080UDC     C733876   3.120   1.126  13.779  0.1839 -0.2778  0.4361
 3080UDC     C833877   3.148   1.279  13.786 -0.1524 -0.7018 -0.3932
 3080UDC     C933878   3.272   1.309  13.696  0.7715 -0.2179 -0.9921
 3080UDC    C1033879   3.257   1.426  13.613 -0.8371  0.1358  0.6548
 3080UDC    C1133880   3.262   1.554  13.694 -0.3879 -0.3212 -1.1343
 3081UDC     C133881   4.373  12.220  11.931  0.2678  0.0200 -0.0470
 3081UDC     C233882   4.456  12.350  11.919 -0.1943 -0.3894 -1.1164
 3081UDC     C333883   4.531  12.382  12.050  0.5278 -0.6306  0.0608
 3081UDC     C433884   4.509  12.536  12.084 -1.3326  0.0431  0.9812
 3081UDC     C533885   4.571  12.574  12.216  0.6795  0.3795 -0.5518
 3081UDC     C633886   4.500  12.512  12.337 -1.0434 -0.6291  0.5627
 3081UDC     C733887   4.556  12.566  12.470 -0.2252  0.4039  1.0212
 3081UDC     C833888   4.513  12.471  12.585  0.2576  0.1859  0.4259
 3081UDC     C933889   4.356  12.477  12.596 -0.1863  0.2628 -0.9693
 3081UDC    C1033890   4.293  12.340  12.569 -0.1662  0.1991  0.0923
 3081UDC    C1133891   4.145  12.354  12.594  0.2657  0.5598  0.5340
 3082UDC     C133892   1.052  18.363  16.904 -0.0508 -1.0838  0.4779
 3082UDC     C233893   1.184  18.335  16.980 -1.1000  1.1029 -0.9334
 3082UDC     C333894   1.259  18.462  17.014 -1.2641  0.6743  0.5513
 3082UDC     C433895   1.200  18.554  17.120  0.0442 -0.2386 -0.0910
 3082UDC     C533896   1.254  18.696  17.102  1.0788  0.0461 -0.2960
 3082UDC     C633897   1.203  18.783  17.219  0.6813 -0.3853  0.1975
 3082UDC     C733898   1.230  18.933  17.214  0.3854  0.1269  0.3124
 3082UDC     C833899   1.135  19.007  17.106 -0.4221 -0.0244 -0.8219
 3082UDC     C933900   1.017  19.085  17.179 -0.2472 -0.4328  0.5444
 3082UDC    C1033901   0.961  19.180  17.071  0.1107 -0.1095  0.1689
 3082UDC    C1133902   0.950  19.129  16.931 -0.7928  0.6030 -1.0086
 3083UDC     C133903   7.481   8.061   3.423  0.5277  0.4518 -0.4592
 3083UDC     C233904   7.412   8.189   3.451  0.1629  0.1202 -0.5046
 3083UDC     C333905   7.506   8.289   3.498 -0.0807 -0.5390 -0.7109
 3083UDC     C433906   7.623   8.352   3.418 -1.1241  0.3555 -0.5299
 3083UDC     C533907   7.608   8.399   3.271 -0.0289 -0.1829 -0.1343
 3083UDC     C633908   7.610   8.290   3.156  0.6951  0.0458 -0.4232
 3083UDC     C733909   7.743   8.210   3.175  0.4512  0.8550 -0.0379
 3083UDC     C833910   7.867   8.298   3.137  0.2780  0.7309  0.4358
 3083UDC     C933911   7.993   8.221   3.147  1.0698  0.5649 -0.2735
 3083UDC    C1033912   8.107   8.320   3.143  0.7874  0.4920 -1.1560
 3083UDC    C1133913   8.110   8.401   3.016 -0.4155 -0.0465 -0.9658
 3084UDC     C133914  19.997  19.456  17.983  1.0484 -0.4284  0.4526
 3084UDC     C233915  20.141  19.513  17.993  0.1193 -0.0852  0.3206
 3084UDC     C333916  20.202  19.497  18.131  0.0222  0.2698 -0.7951
 3084UDC     C433917  20.115  19.599  18.208 -0.3815  0.6360  0.9823
 3084UDC     C533918  20.108  19.583  18.360 -0.0997 -1.0990 -0.3546
 3084UDC     C633919  20.033  19.704  18.427 -0.1516  0.5555  0.9858
 3084UDC     C733920  19.977  19.654  18.558 -0.0427  0.1663 -0.0270
 3084UDC     C833921  20.081  19.687  18.664 -0.6689  0.6633 -0.4711
 3084UDC     C933922  20.185  19.570  18.682 -0.0060 -1.1418 -0.5213
 3084UDC    C1033923  20.260  19.571  18.818 -0.7513 -0.3389 -0.3520
 3084UDC    C1133924  20.195  19.683  18.906  0.2438 -0.4198  0.2525
 3085UDC     C133925  12.230   0.367  18.439  0.6977 -0.1065 -0.6919
 3085UDC     C233926  12.327   0.425  18.335  0.1097  0.2028 -0.3753
 3085UDC     C333927  12.270   0.526  18.230 -1.1285  0.5504 -0.0735
 3085UDC     C433928  12.146   0.481  18.152  1.5172 -0.4249 -0.3064
 3085UDC     C533929  12.114   0.550  18.017 -0.1454  0.2642  1.0527
 3085UDC     C633930  12.097   0.701  18.023  0.2566 -0.2813 -0.0471
 3085UDC     C733931  12.075   0.767  17.883 -0.4846 -0.0636 -0.5045
 3085UDC     C833932  11.950   0.728  17.803 -0.1820  0.0372 -0.4263
 3085UDC     C933933  11.955   0.807  17.675 -0.2327 -0.7620  0.6198
 3085UDC    C1033934  11.969   0.959  17.699 -0.1375 -0.4166 -0.2789
 3085UDC    C1133935  12.004   1.067  17.589  0.4754 -0.1562  0.6949
 3086UDC     C133936   6.272  10.063  17.157  0.4832 -0.8904  1.0417
 3086UDC     C233937   6.183   9.938  17.162 -0.2255 -0.5135 -0.0102
 3086UDC     C333938   6.098   9.907  17.286 -0.8964 -0.7593 -0.6744
 3086UDC     C433939   6.012  10.016  17.358  0.3953 -0.3664  0.6183
 3086UDC     C533940   5.924  10.100  17.260  0.2032  0.0996  0.2599
 3086UDC     C633941   5.814  10.033  17.177  1.0656  0.5319 -0.0497
 3086UDC     C733942   5.767  10.127  17.060  0.3340 -0.4052 -0.7046
 3086UDC     C833943   5.660  10.084  16.955  0.0921 -0.6686 -0.7007
 3086UDC     C933944   5.608  10.216  16.889 -0.0856 -0.9633 -0.6740
 3086UDC    C1033945   5.508  10.172  16.784 -0.0295  0.6805 -0.3117
 3086UDC    C1133946   5.459  10.300  16.714  0.2907  0.2630  0.6179
 3087UDC     C133947  19.334  18.366   1.090 -0.1379  0.0962 -0.5198
 3087UDC     C233948  19.439  18.448   1.023  0.3580 -0.0863  0.2414
 3087UDC     C333949  19.453  18.589   1.061 -0.3650 -0.4901 -0.2385
 3087UDC     C433950  19.571  18.659   0.991  1.4036 -0.8654  0.1246
 3087UDC     C533951  19.573  18.806   1.039  0.0051 -0.6458  0.1764
 3087UDC     C633952  19.608  18.854   1.181 -0.1984 -0.3971 -0.8394
 3087UDC     C733953  19.718  18.794   1.268  0.0639 -0.8500 -0.0941
 3087UDC     C833954  19.860  18.849   1.246 -0.2328 -1.4016  0.3821
 3087UDC     C933955  19.966  18.823   1.360  0.0714 -0.8285  0.1276
 3087UDC    C1033956  19.890  18.854   1.498 -0.1188 -0.2252 -0.5662
 3087UDC    C1133957  19.984  18.873   1.619  0.2727  0.2052  0.6826
 3088UDC     C133958   5.123   9.990  15.419  0.2729 -0.8638  0.7419
 3088UDC     C233959   5.132   9.840  15.434  0.0271 -0.2557  0.2198
 3088UDC     C333960   5.032   9.756  15.357  0.9332 -0.1680 -0.3036
 3088UDC     C433961   5.068   9.612  15.334 -0.1099  0.2352  0.3831
 3088UDC     C533962   5.220   9.629  15.312 -0.7574  0.1552 -0.1548
 3088UDC     C633963   5.298   9.496  15.303 -0.4090  0.5040 -0.7905
 3088UDC     C733964   5.446   9.518  15.256  0.5164  0.5295 -0.2500
 3088UDC     C833965   5.450   9.626  15.154  0.0162  0.0387 -0.6400
 3088UDC     C933966   5.600   9.677  15.139 -0.5434  0.5339  0.1093
 3088UDC    C1033967   5.622   9.778  15.020  0.1295  0.6627  0.5415
 3088UDC    C1133968   5.551   9.733  14.898  0.2981 -0.5655 -0.1169
 3089UDC     C133969  10.029  11.030   1.765 -0.2984 -0.3227 -0.5909
 3089UDC     C233970  10.060  10.882   1.739 -0.4327  0.9284 -0.0067
 3089UDC     C333971  10.207  10.838   1.765 -0.0374 -0.1615 -0.1797
 3089UDC     C433972  10.243  10.692   1.738 -0.2871  0.8799 -0.1100
 3089UDC     C533973  10.241  10.636   1.599 -0.2717  0.6275  0.8884
 3089UDC     C633974  10.313  10.503   1.575  1.4706  0.8641 -0.7681
 3089UDC     C733975  10.457  10.533   1.566 -0.7640 -0.0324  0.0359
 3089UDC     C833976  10.525  10.414   1.504  0.4114 -0.0133  0.1635
 3089UDC     C933977  10.671  10.434   1.463  0.1260  0.5041  0.4073
 3089UDC    C1033978  10.759  10.430   1.591 -0.0769  1.1664 -0.4169
 3089UDC    C1133979  10.890  10.512   1.567  0.7446  0.4485  0.0223
 3090UDC     C133980   3.878   8.500  18.798  0.5603  1.5482 -0.3483
 3090UDC     C233981   3.749   8.551  18.864 -0.4442 -0.5809  0.8733
 3090UDC     C333982   3.766   8.531  19.013 -0.9562 -0.1414 -0.3230
 3090UDC     C433983   3.701   8.400  19.054  0.2111  0.1146  0.6213
 3090UDC     C533984   3.619   8.412  19.182  1.7130  0.0355  0.0840
 3090UDC     C633985   3.701   8.340  19.294  0.3180 -1.5019 -0.1823
 3090UDC     C733986   3.835   8.409  19.331 -0.1517 -0.1235  0.0187
 3090UDC     C833987   3.919   8.330  19.436 -0.5852 -0.3578  0.5927
 3090UDC     C933988   4.028   8.245  19.363  0.7400 -0.1930 -0.3485
 3090UDC    C1033989   4.114   8.171  19.471  0.0022  1.1278  0.1406
 3090UDC    C1133990   4.183   8.042  19.419  0.5868  0.4186  0.1854
 3091UDC     C133991  12.787   0.305   8.072 -0.7202 -0.2920  0.0394
 3091UDC     C233992  12.706   0.180   8.111 -0.9463  0.4229  0.4822
 3091UDC     C333993  12.784   0.091   8.210 -0.1986  0.7983 -0.9248
 3091UDC     C433994  12.883   0.007   8.135  0.4715 -0.0436  0.5006
 3091UDC     C533995  12.991  -0.066   8.211  1.4977  0.2878  0.4732
 3091UDC     C633996  13.053   0.008   8.330  0.3877  0.4588 -0.6638
 3091UDC     C733997  13.169   0.083   8.268 -0.0812  0.6222 -0.9419
 3091UDC     C833998  13.302  -0.002   8.250  0.1415 -0.5467 -0.4900
 3091UDC     C933999  13.433   0.076   8.287  0.7561  1.3531 -0.6027
 3091UDC    C1034000  13.547   0.079   8.186  0.0682 -0.5441  0.2221
 3091UDC    C1134001  13.680   0.118   8.257 -0.0610  0.8641  0.5376
 3092UDC     C134002   4.107   0.286  17.837 -0.3770 -0.9360  1.0532
 3092UDC     C234003   4.244   0.276  17.768 -0.0303 -0.5953 -1.3560
 3092UDC     C334004   4.347   0.255  17.879 -0.3285  0.6290  0.8823
 3092UDC     C434005   4.493   0.281  17.825 -0.8898  0.5109  0.6575
 3092UDC     C534006   4.534   0.430  17.802  0.7380  0.7362 -0.0082
 3092UDC     C634007   4.681   0.437  17.785  0.4855 -0.2201  0.0123
 3092UDC     C734008   4.731   0.574  17.740 -0.1879 -0.3807  0.3652
 3092UDC     C834009   4.786   0.665  17.853 -0.9599 -0.9229  0.0511
 3092UDC     C934010   4.704   0.689  17.979  0.4201 -0.7956  0.4808
 3092UDC    C1034011   4.627   0.821  18.002 -0.5360 -0.2201 -0.8935
 3092UDC    C1134012   4.543   0.890  17.897  0.5658 -0.8711 -0.2444
 3093UDC     C134013  14.032   7.383  13.215  0.7602  0.0470 -0.3000
 3093UDC     C234014  14.177   7.422  13.226 -0.0568 -1.0882  0.5176
 3093UDC     C334015  14.203   7.571  13.210 -0.2045 -0.5260 -0.3247
 3093UDC     C434016  14.145   7.669  13.309 -0.4642 -0.1276  1.0834
 3093UDC     C534017  14.214   7.802  13.291  0.4690 -0.5492  0.2168
 3093UDC     C634018  14.229   7.876  13.422  1.1988 -0.3104 -1.2922
 3093UDC     C734019  14.345   7.809  13.495 -0.0088 -0.3279 -0.4546
 3093UDC     C834020  14.474   7.878  13.448  0.1342  0.5641 -1.5436
 3093UDC     C934021  14.577   7.813  13.543  0.7863 -0.0974  0.2662
 3093UDC    C1034022  14.669   7.921  13.593 -0.1411  1.0020  0.0947
 3093UDC    C1134023  14.761   7.893  13.716 -0.2348 -1.1290 -0.8880
 3094UDC     C134024  13.712  18.507   5.274 -0.3868 -1.3419 -0.4759
 3094UDC     C234025  13.791  18.511   5.141  0.2232 -0.7885 -1.0318
 3094UDC     C334026  13.727  18.546   5.007 -0.8522 -0.1662 -0.3436
 3094UDC     C434027  13.827  18.556   4.894  0.7414  0.7658 -1.2407
 3094UDC     C534028  13.850  18.431   4.801  0.2168 -0.5990  0.1124
 3094UDC     C634029  13.722  18.394   4.718 -1.1573  1.4935  0.3891
 3094UDC     C734030  13.718  18.278   4.605  0.8844  0.1741  0.6602
 3094UDC     C834031  13.671  18.136   4.636  0.3271 -0.3668  0.1638
 3094UDC     C934032  13.708  18.090   4.779  0.2906 -0.4508 -0.2828
 3094UDC    C1034033  13.762  17.942   4.778  0.9745 -0.3129 -0.2124
 3094UDC    C1134034  13.673  17.849   4.696 -0.7407 -0.7224  0.9744
 3095UDC     C134035   2.455   0.641   8.277 -0.5601  0.3952  0.0919
 3095UDC     C234036   2.532   0.513   8.240  0.4023  0.5525 -0.3403
 3095UDC     C334037   2.680   0.512   8.270  0.1318  0.3317 -0.7216
 3095UDC     C434038   2.728   0.378   8.242 -0.6937 -0.4786  1.3311
 3095UDC     C534039   2.878   0.353   8.239 -0.4118  1.1249  0.4303
 3095UDC     C634040   2.910   0.219   8.156  1.0067  0.2053 -0.6135
 3095UDC     C734041   2.843   0.236   8.023  0.2952 -0.1183 -0.6204
 3095UDC     C834042   2.813   0.111   7.940  0.8568  0.2192  0.0038
 3095UDC     C934043   2.752   0.142   7.804  0.4242  0.5351  0.6408
 3095UDC    C1034044   2.850   0.206   7.705 -1.1554  1.0549  0.2321
 3095UDC    C1134045   2.800   0.250   7.570  0.2367 -0.0165 -0.7497
 3096UDC     C134046  19.591  18.378  11.522 -1.4854  0.4565 -0.5446
 3096UDC     C234047  19.512  18.453  11.617 -0.2534 -0.0930 -0.0450
 3096UDC     C334048  19.571  18.585  11.676  0.0199 -0.1850  0.1690
 3096UDC     C434049  19.658  18.649  11.573 -0.4308  0.4667 -0.4655
 3096UDC     C534050  19.716  18.786  11.627 -0.3552 -0.1264  0.0021
 3096UDC     C634051  19.840  18.861  11.575  0.4105 -0.4660  0.0909
 3096UDC     C734052  19.829  19.008  11.633 -0.3156  0.4878 -0.2216
 3096UDC     C834053  19.963  19.088  11.637  0.9116  0.0739 -1.4327
 3096UDC     C934054  19.980  19.154  11.773  0.3819 -1.3290 -0.1740
 3096UDC    C1034055  19.994  19.080  11.897  0.4000  0.1312  0.3202
 3096UDC    C1134056  20.025  19.175  12.010 -0.5650  0.1197 -0.5222
 3097UDC     C134057  19.527   4.886   5.878 -1.1049  0.3129  0.3451
 3097UDC     C234058  19.436   4.778   5.814 -0.8360 -0.2907 -0.2761
 3097UDC     C334059  19.427   4.644   5.889 -0.0327 -0.7341  0.4065
 3097UDC     C434060  19.561   4.572   5.862  0.7437  0.0799 -0.1733
 3097UDC     C534061  19.554   4.430   5.903 -1.0271  0.1549 -1.3811
 3097UDC     C634062  19.706   4.386   5.912  0.2744 -0.1824  0.4853
 3097UDC     C734063  19.825   4.480   5.950 -0.4399 -0.5657  0.2295
 3097UDC     C834064  19.948   4.405   5.902  0.6845  0.1950 -0.2177
 3097UDC     C934065  20.095   4.454   5.897  0.4455  0.5099 -0.5440
 3097UDC    C1034066  20.170   4.422   6.022  0.3161  0.2638 -1.5282
 3097UDC    C1134067  20.321   4.461   6.029 -1.0653 -0.5976  0.5206
 3098UDC     C134068   1.240  17.636  14.791 -0.7164  0.2698 -0.6901
 3098UDC     C234069   1.241  17.712  14.656 -0.8620  0.0801 -0.1931
 3098UDC     C334070   1.187  17.628  14.545 -0.0365 -0.1196  0.7747
 3098UDC     C434071   1.285  17.577  14.429  0.6642 -1.1176 -0.8040
 3098UDC     C534072   1.203  17.512  14.316 -0.8827 -0.3453 -0.3242
 3098UDC     C634073   1.163  17.628  14.227 -0.2012 -0.3947  0.0188
 3098UDC     C734074   1.112  17.609  14.085  0.1690 -0.6598  0.0596
 3098UDC     C834075   1.226  17.587  13.986  0.4469 -0.0018 -0.9895
 3098UDC     C934076   1.200  17.539  13.842 -0.6065  0.0471 -1.0386
 3098UDC    C1034077   1.315  17.465  13.758  0.6982 -0.1335 -0.0758
 3098UDC    C1134078   1.362  17.327  13.805 -0.6374 -0.0942  0.3051
 3099UDC     C134079  13.278  14.265  12.787 -0.2186 -0.2351  0.4882
 3099UDC     C234080  13.263  14.114  12.784 -1.0760  0.1710  0.0933
 3099UDC     C334081  13.231  14.048  12.918 -0.2641 -0.1199  0.2542
 3099UDC     C434082  13.111  14.102  13.008  0.4822 -0.5920 -0.1898
 3099UDC     C534083  13.098  14.005  13.127  0.2428 -0.2347  0.2946
 3099UDC     C634084  13.100  13.856  13.103 -0.0291  0.0314  0.4726
 3099UDC     C734085  13.101  13.765  13.227 -1.3207  0.1376 -0.3289
 3099UDC     C834086  13.157  13.625  13.229  0.9217  0.1043 -1.5378
 3099UDC     C934087  13.307  13.628  13.236 -0.6515 -0.6892 -0.1015
 3099UDC    C1034088  13.383  13.505  13.262 -1.6029  0.8945 -0.4023
 3099UDC    C1134089  13.510  13.500  13.341  0.0721  1.0575  0.0819
 3100UDC     C134090  19.155   2.088  14.937 -0.7863 -0.1926 -0.8992
 3100UDC     C234091  19.168   2.008  15.069 -1.7214 -0.9650 -0.6528
 3100UDC     C334092  19.094   1.874  15.073  1.2800 -0.1429 -0.1368
 3100UDC     C434093  19.183   1.756  15.019  0.0662 -0.0911 -0.6757
 3100UDC     C534094  19.116   1.622  15.053 -0.4004 -0.3035 -0.0001
 3100UDC     C634095  18.982   1.627  14.972 -0.0025 -0.4338  0.0179
 3100UDC     C734096  19.036   1.613  14.827  0.6205 -0.0276  0.3950
 3100UDC     C834097  18.932   1.549  14.730  0.1412 -0.4595 -0.3334
 3100UDC     C934098  18.983   1.556  14.589 -0.4573 -0.2980 -0.3281
 3100UDC    C1034099  18.879   1.495  14.494 -0.9378  0.2507 -0.5714
 3100UDC    C1134100  18.813   1.373  14.558 -0.7412 -0.1864 -0.6195
 3101UDC     C134101  16.530  11.445  19.479  0.3238  0.1185  1.1783
 3101UDC     C234102  16.530  11.351  19.602  1.0409  0.5344 -0.2678
 3101UDC     C334103  16.432  11.227  19.606 -1.0181 -0.6210 -0.2193
 3101UDC     C434104  16.353  11.214  19.737  1.0419  0.0569 -0.5436
 3101UDC     C534105  16.212  11.283  19.734  0.5366 -0.7697 -0.3152
 3101UDC     C634106  16.121  11.266  19.861 -0.3357 -0.5140 -0.8151
 3101UDC     C734107  16.005  11.371  19.853  0.4467 -1.3348 -0.1494
 3101UDC     C834108  16.043  11.524  19.846  0.3205 -0.0505  0.3996
 3101UDC     C934109  15.924  11.598  19.787  0.1122  0.4821 -1.2958
 3101UDC    C1034110  15.962  11.724  19.717  1.0688 -0.3931  1.2911
 3101UDC    C1134111  15.861  11.837  19.680  0.1806  0.3586 -0.1627
 3102UDC     C134112   2.387   1.974  17.198  0.6386  0.0372  0.0603
 3102UDC     C234113   2.519   1.933  17.269 -0.4292  0.5888  0.5974
 3102UDC     C334114   2.587   2.031  17.372  0.4400 -0.5193 -0.0599
 3102UDC     C434115   2.642   2.160  17.312  0.6653  0.5119 -0.3423
 3102UDC     C534116   2.655   2.253  17.437  0.5922  0.3563  0.5042
 3102UDC     C634117   2.741   2.371  17.411  0.7780 -0.5669 -0.3272
 3102UDC     C734118   2.667   2.503  17.376  0.1771  0.0035 -0.1300
 3102UDC     C834119   2.764   2.619  17.408  0.6185  0.6443 -0.6403
 3102UDC     C934120   2.698   2.757  17.377 -0.7298 -0.1385 -0.2581
 3102UDC    C1034121   2.793   2.882  17.401 -0.4085  0.0436  0.3642
 3102UDC    C1134122   2.813   2.928  17.549 -0.9829 -0.0065 -0.7636
 3103UDC     C134123   0.278   5.288   5.278  0.5188  0.3020 -0.4206
 3103UDC     C234124   0.276   5.174   5.178 -0.4027  0.1165  0.4419
 3103UDC     C334125   0.200   5.222   5.055  0.0073 -0.2406 -0.4248
 3103UDC     C434126   0.054   5.246   5.059 -0.0581 -0.2690  0.6649
 3103UDC     C534127   0.003   5.313   4.927 -0.0064  0.5158 -0.6018
 3103UDC     C634128   0.063   5.453   4.895 -0.4618  1.0172 -0.4450
 3103UDC     C734129   0.041   5.477   4.744 -1.0427 -0.2295 -0.9498
 3103UDC     C834130   0.109   5.365   4.656  1.0642 -0.4789 -1.4952
 3103UDC     C934131   0.099   5.423   4.514 -0.3224  0.6686  0.7033
 3103UDC    C1034132   0.125   5.316   4.404  0.6477  0.2864  0.4101
 3103UDC    C1134133   0.267   5.247   4.430 -0.1264 -0.6818  0.9907
 3104UDC     C134134   1.139  17.496  17.184 -0.2941 -0.2820 -0.6396
 3104UDC     C234135   1.140  17.475  17.340 -0.5379  0.5985 -0.8082
 3104UDC     C334136   1.259  17.539  17.413 -0.2015  1.1385  1.0804
 3104UDC     C434137   1.242  17.581  17.560  0.5294 -0.2017  0.7984
 3104UDC     C534138   1.224  17.474  17.672  0.0795 -0.4162 -0.7077
 3104UDC     C634139   1.313  17.503  17.795  0.8793 -0.0531  0.1275
 3104UDC     C734140   1.294  17.388  17.892 -0.3815 -0.4216 -0.2699
 3104UDC     C834141   1.407  17.372  17.992  0.3857 -0.0101 -0.7302
 3104UDC     C934142   1.451  17.496  18.057 -0.2302 -0.1697 -0.4861
 3104UDC    C1034143   1.547  17.599  17.990 -0.1435  0.9078 -0.9432
 3104UDC    C1134144   1.685  17.554  17.948 -0.1325 -0.8777 -0.2673
 3105UDC     C134145   7.257   5.146  13.013  0.3885  0.4112  0.1861
 3105UDC     C234146   7.385   5.094  12.942  1.1213 -0.1716 -0.1301
 3105UDC     C334147   7.473   5.222  12.943 -0.6408  0.1422 -0.3257
 3105UDC     C434148   7.544   5.256  12.807 -0.6364 -0.1689 -0.8451
 3105UDC     C534149   7.468   5.265  12.676  0.2728 -0.3895 -0.3672
 3105UDC     C634150   7.533   5.301  12.543  0.5128  0.2678  0.5914
 3105UDC     C734151   7.601   5.439  12.532  0.2142 -1.0223  0.0200
 3105UDC     C834152   7.709   5.423  12.421 -1.2275  0.3909 -0.3423
 3105UDC     C934153   7.653   5.371  12.288 -0.5286 -1.3283 -0.6365
 3105UDC    C1034154   7.725   5.420  12.159  0.4013 -1.2598  0.8487
 3105UDC    C1134155   7.858   5.354  12.139  0.1409  0.1064 -0.8274
 3106UDC     C134156   5.450  14.657  14.298  1.0413 -0.0234 -0.0340
 3106UDC     C234157   5.335  14.613  14.209 -0.4219  0.0279  0.0506
 3106UDC     C334158   5.374  14.558  14.066  0.4913 -0.1459  0.2611
 3106UDC     C434159   5.374  14.413  14.060  0.5523  0.3785  0.4261
 3106UDC     C534160   5.454  14.333  13.950  0.0814 -0.2223  0.3759
 3106UDC     C634161   5.430  14.184  13.949  0.4597 -0.6950  0.0570
 3106UDC     C734162   5.484  14.106  13.827  0.2527 -0.7482 -0.8622
 3106UDC     C834163   5.640  14.112  13.829  1.2612 -0.5394  0.9837
 3106UDC     C934164   5.685  14.039  13.702 -0.3365 -0.2577  0.2455
 3106UDC    C1034165   5.834  14.004  13.676  0.8828 -0.2314  1.4724
 3106UDC    C1134166   5.861  13.863  13.631 -0.2923  0.8160  0.9535
 3107UDC     C134167   5.550   4.595   2.679 -0.6900 -0.2084  0.2944
 3107UDC     C234168   5.677   4.630   2.770 -0.1596 -0.8455  0.6613
 3107UDC     C334169   5.815   4.565   2.735 -0.1023 -0.1188  0.2049
 3107UDC     C434170   5.884   4.591   2.601 -0.3826  0.2074 -0.8885
 3107UDC     C534171   6.009   4.498   2.579  0.2762 -0.4413  0.0672
 3107UDC     C634172   5.982   4.343   2.569 -0.1837 -0.1844 -0.2647
 3107UDC     C734173   6.106   4.256   2.593 -0.2441  0.7088 -0.2954
 3107UDC     C834174   6.060   4.110   2.596 -0.1021  0.0121 -0.4108
 3107UDC     C934175   6.140   3.987   2.643  1.1215 -0.4467 -0.0931
 3107UDC    C1034176   6.023   3.898   2.682  0.3465 -0.1758 -0.6175
 3107UDC    C1134177   6.015   3.757   2.629  0.2298 -0.8808 -0.1258
 3108UDC     C134178  19.711   3.225  16.724  0.2626 -0.6495  0.5938
 3108UDC     C234179  19.570   3.269  16.751 -0.8926 -0.1194 -0.2171
 3108UDC     C334180  19.543   3.418  16.761 -0.0299  0.5274 -0.3840
 3108UDC     C434181  19.607   3.524  16.670 -0.5145  0.0368  0.2713
 3108UDC     C534182  19.525   3.648  16.688 -0.7276  0.3152 -0.2284
 3108UDC     C634183  19.461   3.663  16.822 -0.0343 -0.1677  0.3874
 3108UDC     C734184  19.319   3.711  16.801  0.1570 -0.3468  0.2564
 3108UDC     C834185  19.250   3.754  16.932 -0.8198  0.1925  0.0909
 3108UDC     C934186  19.099   3.763  16.927  0.1812 -0.5730  0.3935
 3108UDC    C1034187  19.051   3.809  17.066  0.8569  0.8499 -0.0221
 3108UDC    C1134188  19.085   3.690  17.159 -0.0579 -0.8614  1.1898
 3109UDC     C134189  14.817   9.338  15.671  0.6322 -0.1897 -0.2625
 3109UDC     C234190  14.949   9.270  15.679 -0.7309  0.3261  0.2608
 3109UDC     C334191  15.027   9.291  15.810  0.4528  0.1850 -0.9091
 3109UDC     C434192  15.038   9.441  15.852 -0.4369 -0.9021 -0.6494
 3109UDC     C534193  15.116   9.487  15.981  0.4027 -0.3117  0.4355
 3109UDC     C634194  15.061   9.610  16.051  0.0543 -0.1965 -0.0419
 3109UDC     C734195  15.082   9.745  15.985  0.5472  0.1692 -0.1380
 3109UDC     C834196  14.980   9.847  16.035 -0.2295 -0.2032  0.1914
 3109UDC     C934197  15.033   9.978  15.980  0.8543 -0.7819  0.3820
 3109UDC    C1034198  14.931  10.093  15.973  0.0947  0.5713 -0.2841
 3109UDC    C1134199  14.910  10.186  16.093  0.5350  0.1385  0.1576
 3110UDC     C134200   7.581   7.271  16.779  0.0014  0.6642 -0.0875
 3110UDC     C234201   7.547   7.420  16.804  0.1789  0.0581  0.1932
 3110UDC     C334202   7.466   7.467  16.675 -0.3261  0.5106  0.2556
 3110UDC     C434203   7.332   7.398  16.643 -0.5451 -0.7244  0.6275
 3110UDC     C534204   7.246   7.435  16.529  1.0392 -0.0600  0.1857
 3110UDC     C634205   7.313   7.416  16.392  0.0649 -0.2364  0.3652
 3110UDC     C734206   7.228   7.321  16.311 -1.1994 -0.4794  1.0317
 3110UDC     C834207   7.272   7.348  16.162  0.1586 -1.8243  0.5196
 3110UDC     C934208   7.423   7.360  16.157 -0.2565  0.3848  0.1193
 3110UDC    C1034209   7.484   7.339  16.016 -0.6138  0.0071  0.7877
 3110UDC    C1134210   7.581   7.449  15.986  0.2551  0.1741 -0.2668
 3111UDC     C134211   9.090   8.854   8.208 -0.8567 -0.2737 -0.9123
 3111UDC     C234212   8.981   8.964   8.197 -0.7541  1.2653  0.2455
 3111UDC     C334213   8.908   8.970   8.333  0.2313 -0.9338 -1.3632
 3111UDC     C434214   8.783   9.058   8.344 -0.6265 -0.4150  0.5025
 3111UDC     C534215   8.760   9.101   8.203 -0.5156  0.4064  0.9180
 3111UDC     C634216   8.641   9.192   8.177  1.5915  0.0960  1.5819
 3111UDC     C734217   8.655   9.333   8.226 -0.5361 -0.1643 -0.2726
 3111UDC     C834218   8.543   9.436   8.223 -0.6322  0.9272 -0.8946
 3111UDC     C934219   8.576   9.547   8.117  0.1362  0.4012 -0.6864
 3111UDC    C1034220   8.488   9.666   8.088  0.2346 -0.8802  0.0432
 3111UDC    C1134221   8.540   9.756   7.972 -0.7816 -0.1548 -0.8527
 3112UDC     C134222  14.783   2.901   5.061 -0.8460  0.0395  0.9066
 3112UDC     C234223  14.765   2.778   5.148  0.5774  0.1853  0.6316
 3112UDC     C334224  14.778   2.822   5.301  0.9240 -0.3125 -0.8363
 3112UDC     C434225  14.848   2.707   5.369  0.6894  0.2966  1.3320
 3112UDC     C534226  14.826   2.684   5.519 -0.6681 -0.6053  0.0826
 3112UDC     C634227  14.959   2.611   5.573 -0.3801 -0.4223  0.2697
 3112UDC     C734228  14.967   2.603   5.729 -0.4770  0.3645 -0.4372
 3112UDC     C834229  15.023   2.725   5.794  0.4282  1.5057 -0.4391
 3112UDC     C934230  15.037   2.714   5.945 -0.4342  1.4235  0.1795
 3112UDC    C1034231  15.031   2.844   6.028  0.2576  0.3213  0.2798
 3112UDC    C1134232  14.891   2.871   6.082  0.2312 -0.3724  0.3925
 3113UDC     C134233  10.854   0.826  17.378  0.7128  0.6063 -0.2119
 3113UDC     C234234  10.974   0.820  17.282 -0.8511 -0.0496 -0.5442
 3113UDC     C334235  11.106   0.891  17.315 -0.0906  0.5876 -0.6449
 3113UDC     C434236  11.186   0.902  17.185  0.4320 -0.2696  0.8585
 3113UDC     C534237  11.248   0.770  17.135  0.1281  0.3308 -0.4683
 3113UDC     C634238  11.341   0.766  17.008 -0.7468  0.2317 -0.4420
 3113UDC     C734239  11.380   0.633  16.941  0.2604  0.6676  0.2088
 3113UDC     C834240  11.497   0.654  16.848  0.4884 -0.7806  0.0775
 3113UDC     C934241  11.607   0.667  16.953 -0.3256  1.3122 -0.9671
 3113UDC    C1034242  11.736   0.725  16.899  1.0257  0.4872 -0.2479
 3113UDC    C1134243  11.824   0.774  17.013 -0.5194 -0.9510 -1.5381
 3114UDC     C134244   5.655  13.128  15.502  0.2476  0.0761  0.3576
 3114UDC     C234245   5.695  13.023  15.607  0.7861  0.4150 -1.0382
 3114UDC     C334246   5.842  13.005  15.624  0.3475 -0.9506 -0.4024
 3114UDC     C434247   5.892  13.148  15.675 -0.2359 -0.9485  0.0612
 3114UDC     C534248   5.964  13.116  15.801 -1.3249  0.7817 -0.0403
 3114UDC     C634249   6.050  13.233  15.863 -0.6811 -0.8413  1.2143
 3114UDC     C734250   5.959  13.354  15.871  0.4377  0.0433 -0.0529
 3114UDC     C834251   5.963  13.438  15.999 -0.8299 -0.2833 -1.5442
 3114UDC     C934252   6.103  13.510  16.039  0.1207  0.3363 -0.1172
 3114UDC    C1034253   6.094  13.664  16.044 -0.2197  0.2555  0.8965
 3114UDC    C1134254   6.057  13.741  15.913 -1.0161  0.7126  0.1769
 3115UDC     C134255   2.123  18.034   9.664 -0.9041 -0.5340  0.5209
 3115UDC     C234256   2.005  17.998   9.571  0.6957  0.1105 -0.7682
 3115UDC     C334257   1.870  17.986   9.641  1.2670 -0.4921 -0.9187
 3115UDC     C434258   1.810  17.855   9.592 -0.2730 -0.0560 -0.2662
 3115UDC     C534259   1.689  17.806   9.676 -0.2338  0.7182  0.2736
 3115UDC     C634260   1.547  17.839   9.642  1.2742 -0.6486 -0.5630
 3115UDC     C734261   1.510  17.978   9.685  0.1700  0.6449 -0.2218
 3115UDC     C834262   1.556  18.008   9.832  0.7248  1.2987 -0.5039
 3115UDC     C934263   1.549  18.161   9.858 -0.7273 -0.6726  0.2799
 3115UDC    C1034264   1.629  18.248   9.758 -0.4192 -0.7166 -0.5497
 3115UDC    C1134265   1.766  18.297   9.810  0.5980 -0.5892 -0.3948
 3116UDC     C134266   5.446  16.667  13.505  0.6246 -0.1479 -0.0493
 3116UDC     C234267   5.310  16.597  13.546 -0.3714  0.9387  0.6288
 3116UDC     C334268   5.212  16.675  13.628  0.9599 -1.2006  0.2508
 3116UDC     C434269   5.118  16.593  13.714 -0.0568  0.7018 -0.5178
 3116UDC     C534270   5.039  16.664  13.821 -0.1644  0.1042 -0.4936
 3116UDC     C634271   4.976  16.553  13.912  0.1568  1.0312 -0.6014
 3116UDC     C734272   5.063  16.555  14.034 -0.2303  0.2159  0.4531
 3116UDC     C834273   5.060  16.679  14.126 -0.6727  0.1726  0.3391
 3116UDC     C934274   4.992  16.637  14.256 -0.8332 -0.3924  0.4880
 3116UDC    C1034275   5.001  16.710  14.392  0.6193 -0.6384  0.4906
 3116UDC    C1134276   4.871  16.697  14.483 -0.1252 -0.3424  0.7918
 3117UDC     C134277  17.063   7.931  16.717  0.0640 -0.5465  0.8694
 3117UDC     C234278  16.912   7.914  16.704 -0.2769  1.0284 -0.8986
 3117UDC     C334279  16.879   7.821  16.591  0.8853  0.6656 -0.7393
 3117UDC     C434280  16.734   7.766  16.600 -0.7076 -0.2384  0.0044
 3117UDC     C534281  16.606   7.847  16.581  0.4910  0.0056  0.6764
 3117UDC     C634282  16.576   7.873  16.431 -0.6053 -0.3298 -0.2950
 3117UDC     C734283  16.438   7.831  16.384  0.4799 -0.0900  0.1591
 3117UDC     C834284  16.444   7.800  16.230 -0.0399  0.2034 -0.9195
 3117UDC     C934285  16.472   7.930  16.153 -0.2024 -0.1309 -0.7819
 3117UDC    C1034286  16.426   7.925  16.012  0.1762  0.3130  0.4675
 3117UDC    C1134287  16.473   8.039  15.917  0.0783 -0.2211  0.7558
 3118UDC     C134288   2.326   1.715  14.288 -0.5909  0.7318 -0.4423
 3118UDC     C234289   2.284   1.756  14.432  0.1430 -0.7332  0.9661
 3118UDC     C334290   2.411   1.802  14.507  0.0862 -0.3796 -0.5097
 3118UDC     C434291   2.457   1.949  14.471  0.4920  0.9443 -0.5086
 3118UDC     C534292   2.591   2.002  14.523 -0.3447  0.3879 -0.7528
 3118UDC     C634293   2.633   2.140  14.457 -1.3010  0.1627  0.0279
 3118UDC     C734294   2.561   2.267  14.513  0.7552  0.9601  0.2246
 3118UDC     C834295   2.461   2.346  14.420 -0.6451  0.1681  0.2203
 3118UDC     C934296   2.352   2.268  14.368  0.8312 -0.8745 -0.5358
 3118UDC    C1034297   2.281   2.326  14.244 -0.4779 -0.8848  1.0225
 3118UDC    C1134298   2.142   2.264  14.204 -0.0838 -0.8593 -0.3358
 3119UDC     C134299   9.433  12.650  15.615 -1.2848  0.5707  0.7372
 3119UDC     C234300   9.386  12.522  15.553 -0.9500  1.6682 -0.6086
 3119UDC     C334301   9.238  12.507  15.603 -1.0017 -0.4541 -0.0184
 3119UDC     C434302   9.226  12.523  15.761 -0.2094  0.0528  0.0201
 3119UDC     C534303   9.086  12.532  15.815  0.5371 -0.0385  0.7407
 3119UDC     C634304   9.009  12.671  15.805 -0.0895  0.5331 -0.6220
 3119UDC     C734305   8.909  12.709  15.921 -0.2271 -0.4079 -0.2439
 3119UDC     C834306   8.983  12.834  15.979  0.8803  0.1380  0.6590
 3119UDC     C934307   8.996  12.939  15.863  0.2162  0.3616 -0.8788
 3119UDC    C1034308   9.101  13.045  15.880  0.4940 -0.5632 -0.2466
 3119UDC    C1134309   9.042  13.136  15.991 -0.0702  0.0745  1.3930
 3120UDC     C134310  13.233   3.761   7.338  0.1451  1.1370  0.8526
 3120UDC     C234311  13.156   3.884   7.383  1.2700 -1.0424  0.2961
 3120UDC     C334312  13.223   4.027   7.383  0.1922  0.0658 -0.6328
 3120UDC     C434313  13.276   4.076   7.251  0.9183 -0.1798  1.1006
 3120UDC     C534314  13.281   4.230   7.255  0.2659  0.0035  0.1929
 3120UDC     C634315  13.332   4.266   7.391 -0.5771  0.5722 -0.9130
 3120UDC     C734316  13.336   4.418   7.424  0.5155 -0.6366 -0.5528
 3120UDC     C834317  13.402   4.505   7.309  0.2819 -0.7462 -0.4110
 3120UDC     C934318  13.439   4.645   7.354  0.6033  0.0003 -0.0018
 3120UDC    C1034319  13.498   4.728   7.244  0.5910  0.6629  0.4498
 3120UDC    C1134320  13.567   4.863   7.275 -0.5563 -0.1769  1.4232
 3121UDC     C134321  11.712   6.153   7.588 -1.4014 -0.1152 -1.2481
 3121UDC     C234322  11.819   6.110   7.687  1.0852  0.2817 -1.2184
 3121UDC     C334323  11.899   6.226   7.758  0.5467 -0.3719  0.1651
 3121UDC     C434324  12.016   6.291   7.684  0.6483  0.5285 -0.6556
 3121UDC     C534325  12.033   6.438   7.726 -0.2952  1.2727  1.1810
 3121UDC     C634326  11.893   6.508   7.703 -0.9450  0.4402 -0.2828
 3121UDC     C734327  11.899   6.659   7.702  1.0631 -0.8383  0.1102
 3121UDC     C834328  11.761   6.717   7.657 -0.3801 -0.0810  0.6955
 3121UDC     C934329  11.742   6.683   7.511  0.7590 -0.7012 -0.8983
 3121UDC    C1034330  11.594   6.647   7.496 -1.0120  0.1503  1.0194
 3121UDC    C1134331  11.577   6.563   7.363  0.3128  0.0409 -0.2169
 3122UDC     C134332   0.534  14.967  19.208 -0.2796  0.2064  0.1849
 3122UDC     C234333   0.439  14.979  19.092 -0.1073 -0.9546 -0.6407
 3122UDC     C334334   0.292  14.938  19.096  0.7066  0.0544  0.1928
 3122UDC     C434335   0.213  14.928  18.966  1.5013 -1.1154 -0.6409
 3122UDC     C534336   0.085  14.857  19.004 -0.0362  0.1926 -0.6283
 3122UDC     C634337  -0.029  14.870  18.900  0.1139  0.2171 -0.5963
 3122UDC     C734338  -0.154  14.806  18.964 -0.3245  0.7362  1.1769
 3122UDC     C834339  -0.268  14.737  18.878  0.4462  0.4206  0.7185
 3122UDC     C934340  -0.364  14.660  18.967  0.1505  0.1092 -0.2795
 3122UDC    C1034341  -0.475  14.596  18.897 -0.7280  0.4495 -0.3132
 3122UDC    C1134342  -0.524  14.467  18.970 -0.5480 -0.5207 -0.0634
 3123UDC     C134343   4.746  17.661   3.444  1.2831  0.2297  0.3015
 3123UDC     C234344   4.746  17.718   3.584  0.6322 -0.6214  1.1740
 3123UDC     C334345   4.856  17.824   3.595  0.0351 -0.2132  0.5598
 3123UDC     C434346   4.844  17.876   3.745 -0.8044  1.0019 -0.8890
 3123UDC     C534347   4.933  17.996   3.789 -0.4365  0.5797 -0.4242
 3123UDC     C634348   4.982  18.073   3.659 -0.6783  0.2355  0.6707
 3123UDC     C734349   5.131  18.076   3.635 -0.2444  0.1512  0.4242
 3123UDC     C834350   5.167  18.092   3.487  0.4958 -0.5181 -0.0300
 3123UDC     C934351   5.321  18.082   3.453 -0.0564 -1.0998  0.4964
 3123UDC    C1034352   5.339  18.070   3.304 -0.4111 -0.1544 -0.3433
 3123UDC    C1134353   5.253  18.176   3.227 -0.8106  0.3437 -0.3791
 3124UDC     C134354  18.924  10.635   0.322  0.5680  1.0476  0.3078
 3124UDC     C234355  18.993  10.595   0.192 -0.6319 -1.3205 -0.4973
 3124UDC     C334356  19.131  10.518   0.200  0.9701  0.8294  0.3881
 3124UDC     C434357  19.197  10.530   0.063 -0.5653  0.0889 -0.5242
 3124UDC     C534358  19.096  10.477  -0.034 -0.1694 -0.0717  1.4911
 3124UDC     C634359  19.130  10.477  -0.183 -0.8833 -0.3251  0.8900
 3124UDC     C734360  19.043  10.577  -0.265  1.2468  0.2039  0.4237
 3124UDC     C834361  18.896  10.594  -0.212  0.7259 -0.2414 -0.1283
 3124UDC     C934362  18.785  10.532  -0.296  0.5585 -0.2634 -0.3654
 3124UDC    C1034363  18.704  10.622  -0.399  0.5993 -0.4505  0.0834
 3124UDC    C1134364  18.606  10.559  -0.499  0.5003  0.1369  0.6104
 3125UDC     C134365  19.581   3.185   7.549  0.1762  0.9728  0.5074
 3125UDC     C234366  19.672   3.294   7.495 -0.3957  0.2138 -1.0544
 3125UDC     C334367  19.644   3.313   7.343 -0.0164  0.1969 -0.6448
 3125UDC     C434368  19.707   3.443   7.288 -0.1702  0.5289 -0.2947
 3125UDC     C534369  19.629   3.505   7.173 -0.2839 -0.7226  0.5285
 3125UDC     C634370  19.515   3.567   7.260  0.5611  0.1235 -0.3606
 3125UDC     C734371  19.401   3.634   7.188  0.4736  0.2358 -0.3782
 3125UDC     C834372  19.308   3.712   7.295 -0.8911  0.3152  0.2911
 3125UDC     C934373  19.212   3.807   7.213  0.4583 -0.5019 -0.2071
 3125UDC    C1034374  19.078   3.812   7.287  0.3145  0.3848  0.1138
 3125UDC    C1134375  19.017   3.678   7.329  0.0933 -0.4069 -0.5235
 3126UDC     C134376  18.513   4.543   6.368 -0.1222 -1.1078  0.7184
 3126UDC     C234377  18.573   4.400   6.368  0.7627 -0.2303 -0.9776
 3126UDC     C334378  18.492   4.275   6.322  0.1192 -0.6002  0.3267
 3126UDC     C434379  18.565   4.140   6.363 -1.0270  0.0980  0.0814
 3126UDC     C534380  18.503   4.024   6.285 -0.2722 -0.9706  0.7170
 3126UDC     C634381  18.540   3.892   6.344  0.3356  0.2223  0.5082
 3126UDC     C734382  18.432   3.815   6.421  0.4109 -0.5869  0.1173
 3126UDC     C834383  18.470   3.813   6.565 -1.1653  0.0644 -0.4103
 3126UDC     C934384  18.424   3.671   6.626 -0.2404 -0.6808  0.7370
 3126UDC    C1034385  18.272   3.655   6.614 -0.5026 -1.2412 -0.2153
 3126UDC    C1134386  18.193   3.611   6.734 -0.9866 -0.1679 -0.3745
 3127UDC     C134387   9.545  12.862   9.113  0.6982  0.3452  0.3156
 3127UDC     C234388   9.674  12.790   9.090 -0.5676 -0.5790  0.2712
 3127UDC     C334389   9.805  12.869   9.071 -0.3247 -1.3786 -0.0729
 3127UDC     C434390   9.815  12.938   8.934  0.4855 -0.2038  0.5029
 3127UDC     C534391   9.894  13.062   8.906  0.1782 -1.2796 -0.7766
 3127UDC     C634392   9.981  13.071   8.775  0.2907 -0.5660  0.0618
 3127UDC     C734393  10.071  13.199   8.759 -0.6535 -0.4987  0.5114
 3127UDC     C834394   9.993  13.331   8.781  0.8407 -0.7627  0.2575
 3127UDC     C934395   9.881  13.348   8.679  0.8675 -0.2579 -0.0280
 3127UDC    C1034396   9.759  13.436   8.732  0.4618  0.2278 -0.5356
 3127UDC    C1134397   9.661  13.373   8.828  0.4496  0.3808  0.2817
 3128UDC     C134398   4.743  19.078  14.119  0.2287 -0.3213  0.6276
 3128UDC     C234399   4.788  18.929  14.142 -0.7766  0.0208 -0.4423
 3128UDC     C334400   4.893  18.879  14.041  0.0599 -0.4189  0.0397
 3128UDC     C434401   4.830  18.835  13.908 -0.0020 -0.2056 -0.6705
 3128UDC     C534402   4.701  18.752  13.910 -0.2703 -0.2135  0.2012
 3128UDC     C634403   4.627  18.747  13.769 -0.4540 -0.9269 -0.6441
 3128UDC     C734404   4.495  18.678  13.772 -0.2012  0.1064 -0.3862
 3128UDC     C834405   4.382  18.779  13.781  0.7489  0.7568  0.8817
 3128UDC     C934406   4.394  18.914  13.705  0.3542 -0.7586  0.0691
 3128UDC    C1034407   4.270  19.001  13.710  0.5828 -0.0248 -0.3025
 3128UDC    C1134408   4.149  18.929  13.636  0.4981 -0.0239 -0.1476
 3129UDC     C134409  13.594  13.235  17.426  0.7026  0.2784  0.9564
 3129UDC     C234410  13.468  13.201  17.345 -0.1377  0.7079  0.7048
 3129UDC     C334411  13.370  13.093  17.401  0.7824 -0.8801  0.3323
 3129UDC     C434412  13.281  13.014  17.301  0.6480  0.4346 -0.6803
 3129UDC     C534413  13.186  12.892  17.332  0.3640  0.3757  0.8877
 3129UDC     C634414  13.065  12.897  17.427  1.5107 -0.1126 -0.8361
 3129UDC     C734415  12.944  12.975  17.387 -0.2012 -0.1994  0.3013
 3129UDC     C834416  12.821  12.972  17.487 -0.0958  0.4785  0.5449
 3129UDC     C934417  12.685  12.973  17.417  0.2925  0.0371  1.3247
 3129UDC    C1034418  12.567  13.001  17.514  0.1901 -0.2672 -0.0566
 3129UDC    C1134419  12.443  13.012  17.427  0.3644  0.0167  0.6091
 3130UDC     C134420  13.970  11.687  11.759 -0.0441  0.2107  0.2453
 3130UDC     C234421  13.826  11.651  11.727  0.6944 -0.5576 -0.1511
 3130UDC     C334422  13.789  11.503  11.757 -0.9014  0.1217  0.6813
 3130UDC     C434423  13.648  11.454  11.710 -0.0188 -0.9959 -0.1609
 3130UDC     C534424  13.534  11.550  11.759 -0.6088 -1.8496 -0.2414
 3130UDC     C634425  13.381  11.519  11.746  0.6715  0.5459  0.5047
 3130UDC     C734426  13.294  11.510  11.875  0.5393 -0.1315  0.3128
 3130UDC     C834427  13.148  11.484  11.840  1.0876  0.6664 -0.2008
 3130UDC     C934428  13.064  11.362  11.812  1.0998 -0.2099 -0.2749
 3130UDC    C1034429  13.005  11.281  11.929  0.0323 -0.2393  0.5813
 3130UDC    C1134430  12.886  11.201  11.887  1.2250  0.2173 -1.0508
 3131UDC     C134431  10.233   7.634  11.244 -0.4773 -1.1477  0.3177
 3131UDC     C234432  10.129   7.746  11.290  0.1742 -0.6628 -0.9181
 3131UDC     C334433   9.987   7.698  11.262 -0.2317  0.9000  0.5566
 3131UDC     C434434   9.901   7.795  11.185  0.8876 -1.1681  1.1451
 3131UDC     C534435   9.786   7.736  11.106  1.2026  1.0024  0.3198
 3131UDC     C634436   9.829   7.666  10.971  0.9417 -0.4858  0.3172
 3131UDC     C734437   9.931   7.745  10.884  0.2552 -0.3053 -0.2123
 3131UDC     C834438   9.919   7.713  10.732  0.1368 -0.6687 -0.2254
 3131UDC     C934439   9.989   7.784  10.615  0.8569  0.9233  0.4395
 3131UDC    C1034440  10.008   7.699  10.485 -0.0639 -0.2762  0.0288
 3131UDC    C1134441  10.097   7.768  10.376 -0.0230  0.2560 -0.3592
 3132UDC     C134442  16.526  11.472   8.235 -0.5885  0.1296  0.2727
 3132UDC     C234443  16.533  11.344   8.149  0.5554 -0.3357 -0.4975
 3132UDC     C334444  16.413  11.250   8.181  0.4961  1.0547 -0.7174
 3132UDC     C434445  16.432  11.182   8.313 -0.0788  0.0370 -0.9298
 3132UDC     C534446  16.373  11.033   8.324  0.1613 -1.0903  0.4356
 3132UDC     C634447  16.352  10.953   8.194  0.2279 -1.1296 -0.1720
 3132UDC     C734448  16.315  10.809   8.222 -0.5084 -0.7054  1.1554
 3132UDC     C834449  16.390  10.764   8.346 -0.5386  0.2094  0.3581
 3132UDC     C934450  16.370  10.629   8.417 -0.8224 -0.2887 -0.9908
 3132UDC    C1034451  16.492  10.564   8.480  0.9299 -0.8580  0.3027
 3132UDC    C1134452  16.477  10.408   8.491  0.3450 -0.8358 -0.3627
 3133UDC     C134453   5.182  13.128   8.929 -0.9348  0.0166 -0.2486
 3133UDC     C234454   5.254  13.217   8.829  0.0872 -0.9754 -0.5927
 3133UDC     C334455   5.388  13.163   8.793 -0.5445  1.2891 -0.1332
 3133UDC     C434456   5.448  13.228   8.669  1.0316 -1.4286 -1.0115
 3133UDC     C534457   5.503  13.112   8.583  1.1602 -0.4708 -0.3805
 3133UDC     C634458   5.407  12.996   8.543  0.4021 -0.1167 -0.7520
 3133UDC     C734459   5.357  13.008   8.399 -0.2050 -0.0583  0.2818
 3133UDC     C834460   5.268  12.899   8.326 -0.6974  0.3780 -0.9219
 3133UDC     C934461   5.272  12.883   8.172  0.4675  0.3625  0.3857
 3133UDC    C1034462   5.145  12.830   8.097  0.2772 -1.0144 -0.3299
 3133UDC    C1134463   5.010  12.897   8.114 -0.4346 -0.9657  0.6952
 3134UDC     C134464   0.934  12.940   0.701  0.8585  0.2349 -1.2738
 3134UDC     C234465   0.819  12.894   0.603 -0.8244  0.5365  0.0438
 3134UDC     C334466   0.800  12.750   0.621  0.0789  1.2016 -0.1532
 3134UDC     C434467   0.903  12.659   0.544  0.7379 -1.7996 -0.4247
 3134UDC     C534468   0.918  12.695   0.394 -0.6712  0.4899  0.2977
 3134UDC     C634469   0.960  12.578   0.307  1.2796 -1.3057  0.7625
 3134UDC     C734470   0.952  12.601   0.153  0.9608 -0.4418 -0.1442
 3134UDC     C834471   1.047  12.700   0.094  0.0778 -0.1313 -0.7008
 3134UDC     C934472   1.200  12.656   0.099 -0.4462  0.2823 -0.4074
 3134UDC    C1034473   1.314  12.761   0.064  0.8985  0.0755  0.0214
 3134UDC    C1134474   1.286  12.859  -0.054 -1.5440  0.2247 -0.3593
 3135UDC     C134475  15.307   8.010  10.858  0.1198 -0.3653 -0.2799
 3135UDC     C234476  15.238   8.130  10.920 -0.1003  0.7348  0.2563
 3135UDC     C334477  15.257   8.272  10.859  0.1794 -0.2220 -0.2622
 3135UDC     C434478  15.232   8.292  10.706  0.8000  1.5162 -0.4160
 3135UDC     C534479  15.148   8.402  10.648  0.0701 -0.6642  0.2215
 3135UDC     C634480  15.177   8.546  10.699 -1.4061  0.0166  0.0783
 3135UDC     C734481  15.060   8.618  10.756  0.9595  1.4915 -0.7424
 3135UDC     C834482  15.100   8.764  10.811 -0.1005  0.9671  1.3978
 3135UDC     C934483  14.978   8.842  10.858  0.6202 -0.4434  0.5573
 3135UDC    C1034484  15.009   8.992  10.847  0.1103 -0.1897 -0.4188
 3135UDC    C1134485  14.920   9.084  10.932 -0.1596 -0.4995 -0.8552
 3136UDC     C134486   6.542   4.702   7.722  0.0181  0.2802  0.3960
 3136UDC     C234487   6.486   4.774   7.600 -0.8036 -0.0302  1.0166
 3136UDC     C334488   6.579   4.788   7.480 -1.2560  0.9741  0.9022
 3136UDC     C434489   6.733   4.843   7.502  1.6123  0.6324 -0.4673
 3136UDC     C534490   6.832   4.854   7.383 -0.1479  1.1255  0.0412
 3136UDC     C634491   6.949   4.949   7.418 -1.1252 -0.1318  0.6422
 3136UDC     C734492   7.027   4.885   7.532  0.2417  0.4763 -0.0414
 3136UDC     C834493   7.130   4.976   7.594 -0.1131  0.0364  0.3813
 3136UDC     C934494   7.149   4.936   7.745 -0.4699 -0.1626 -1.2695
 3136UDC    C1034495   7.198   5.057   7.828  0.2477  0.7056 -0.4283
 3136UDC    C1134496   7.281   5.037   7.958 -0.1520  0.5471 -0.3847
 3137UDC     C134497   1.391  14.810   2.744  0.7703 -0.2341  0.8118
 3137UDC     C234498   1.374  14.722   2.619 -0.4457  0.2288  0.4944
 3137UDC     C334499   1.338  14.577   2.655  0.1136 -0.2511  0.3139
 3137UDC     C434500   1.429  14.516   2.761 -1.2649 -0.2210 -0.8547
 3137UDC     C534501   1.461  14.368   2.789 -0.0237 -0.4904 -0.9637
 3137UDC     C634502   1.548  14.327   2.915 -0.5994 -0.7343 -0.1618
 3137UDC     C734503   1.616  14.187   2.896  0.7550  0.5566 -0.9236
 3137UDC     C834504   1.724  14.183   2.783 -0.1039  0.1395  0.0767
 3137UDC     C934505   1.799  14.312   2.764 -0.5297 -0.2632 -0.0823
 3137UDC    C1034506   1.857  14.297   2.621 -0.4998 -0.6919  1.0615
 3137UDC    C1134507   1.955  14.400   2.568 -0.9834  0.5705  0.4487
 3138UDC     C134508   1.001   8.005  12.061  0.3327  0.7716 -0.7608
 3138UDC     C234509   0.883   8.080  12.121  0.2526 -0.1518 -0.0552
 3138UDC     C334510   0.771   8.088  12.018 -0.7149 -0.1946  0.6027
 3138UDC     C434511   0.809   8.194  11.913 -0.4263  0.1894  0.2676
 3138UDC     C534512   0.707   8.219  11.802 -0.5567  1.0682 -0.0038
 3138UDC     C634513   0.773   8.247  11.668  0.3930  0.5764  0.1381
 3138UDC     C734514   0.839   8.122  11.607 -0.3796  0.5143  0.7478
 3138UDC     C834515   0.741   8.003  11.592  0.4826 -0.0101  0.2253
 3138UDC     C934516   0.799   7.890  11.508 -0.1250 -0.4827 -0.8861
 3138UDC    C1034517   0.877   7.784  11.591  0.1392  0.3659 -0.6309
 3138UDC    C1134518   0.792   7.683  11.648  1.2600 -0.6469 -0.0042
 3139UDC     C134519  13.879  15.444  17.527  0.6034 -0.1047  0.3859
 3139UDC     C234520  13.818  15.437  17.383  0.2690  0.5273 -0.8386
 3139UDC     C334521  13.703  15.543  17.362 -0.2374 -0.0671  0.3399
 3139UDC     C434522  13.637  15.542  17.224  1.8709  0.4209  0.5866
 3139UDC     C534523  13.728  15.582  17.105 -1.3680  1.3538 -0.0307
 3139UDC     C634524  13.777  15.727  17.104 -0.2756 -0.5774 -1.2465
 3139UDC     C734525  13.930  15.711  17.103 -0.6259 -0.3538  0.7453
 3139UDC     C834526  14.013  15.833  17.154  0.1928  1.0030  0.3509
 3139UDC     C934527  14.159  15.825  17.168 -0.4237  0.2972  0.5570
 3139UDC    C1034528  14.183  15.701  17.246  0.3482  0.5988 -0.8914
 3139UDC    C1134529  14.327  15.648  17.245 -0.5032  1.1419 -1.1307
 3140UDC     C134530  13.335   7.613   6.890  0.3363  0.0992 -0.3716
 3140UDC     C234531  13.278   7.730   6.811 -0.2596 -0.1637  0.3638
 3140UDC     C334532  13.230   7.862   6.860 -0.2837 -0.3491 -0.6853
 3140UDC     C434533  13.164   7.969   6.772  0.0672 -0.5976  0.5861
 3140UDC     C534534  13.033   7.932   6.698  0.1686  0.4990  0.4565
 3140UDC     C634535  12.990   8.043   6.598  0.7118  0.9870  0.9016
 3140UDC     C734536  12.952   8.175   6.660 -0.3945  0.5033  0.0596
 3140UDC     C834537  12.866   8.266   6.565 -1.0258  0.0342 -0.2851
 3140UDC     C934538  12.942   8.345   6.463 -0.4254  0.2589  0.2555
 3140UDC    C1034539  12.860   8.449   6.391 -0.2805 -0.2540 -0.0906
 3140UDC    C1134540  12.823   8.584   6.452  1.4273 -0.2887  0.3081
 3141UDC     C134541  11.543   0.271  10.155  0.5253 -1.0188  0.2642
 3141UDC     C234542  11.573   0.117  10.140  0.2065 -0.2556 -0.1153
 3141UDC     C334543  11.670   0.086  10.257  0.1914  0.0837 -0.6794
 3141UDC     C434544  11.622   0.118  10.397 -1.1867 -0.0438 -0.7894
 3141UDC     C534545  11.672   0.017  10.512  0.4673 -0.3815  0.2040
 3141UDC     C634546  11.556  -0.055  10.565 -0.5512  0.4609 -1.9431
 3141UDC     C734547  11.575  -0.203  10.604 -0.1767  0.4058 -0.0076
 3141UDC     C834548  11.670  -0.225  10.735 -0.2826 -0.5213 -0.3524
 3141UDC     C934549  11.696  -0.370  10.791 -0.8310  0.3378  0.2020
 3141UDC    C1034550  11.770  -0.461  10.687 -0.1459 -0.6248 -0.1187
 3141UDC    C1134551  11.802  -0.595  10.762 -0.1637 -0.8139 -0.2169
 3142UDC     C134552   1.488  16.267  14.786 -0.4815  0.2478  0.4258
 3142UDC     C234553   1.508  16.345  14.660  1.0439 -0.1313 -0.0416
 3142UDC     C334554   1.396  16.296  14.569  0.0612 -0.2384  1.4838
 3142UDC     C434555   1.386  16.148  14.527  0.9843 -0.3879 -0.8172
 3142UDC     C534556   1.290  16.125  14.407 -0.4563  0.0338  0.1560
 3142UDC     C634557   1.358  16.195  14.283  0.2076  0.5550 -0.6147
 3142UDC     C734558   1.273  16.191  14.153  0.5912 -0.4369 -0.0345
 3142UDC     C834559   1.313  16.249  14.024 -0.5502 -0.5913  0.6594
 3142UDC     C934560   1.320  16.404  13.998  0.2919  0.3540 -0.2223
 3142UDC    C1034561   1.459  16.459  13.956 -0.1995 -0.7735  0.1928
 3142UDC    C1134562   1.447  16.608  13.911 -1.4747  0.0525 -0.7231
 3143UDC     C134563   5.608   4.468  19.010 -0.0054 -0.0059 -0.7331
 3143UDC     C234564   5.706   4.534  18.910 -0.1630 -0.0065  0.2880
 3143UDC     C334565   5.712   4.684  18.891  0.2543  0.4305  0.0673
 3143UDC     C434566   5.608   4.751  18.805  0.4720 -0.5376  0.8945
 3143UDC     C534567   5.654   4.894  18.789  0.5019  0.1430 -1.2992
 3143UDC     C634568   5.591   4.951  18.663  0.8927 -0.1127 -0.2633
 3143UDC     C734569   5.458   5.022  18.677  0.1854 -0.2300  0.0261
 3143UDC     C834570   5.431   5.095  18.541 -0.3688 -0.0557  0.4068
 3143UDC     C934571   5.412   5.009  18.421 -0.2976  0.3879  0.8502
 3143UDC    C1034572   5.376   5.097  18.308 -0.3084  0.5280  1.1712
 3143UDC    C1134573   5.480   5.204  18.292 -0.5687 -0.5103 -0.3238
 3144UDC     C134574  17.163   0.479  17.889 -0.1868  0.7290 -0.0792
 3144UDC     C234575  17.064   0.591  17.872  0.2770 -1.3278 -0.2707
 3144UDC     C334576  17.044   0.649  17.730 -0.2397 -0.6238 -0.1084
 3144UDC     C434577  17.161   0.739  17.685 -0.1155 -0.0631  0.1433
 3144UDC     C534578  17.226   0.702  17.551 -0.2308  0.9912 -0.8194
 3144UDC     C634579  17.277   0.558  17.547 -0.6157  1.4566 -0.3930
 3144UDC     C734580  17.414   0.533  17.609  0.0762  0.0747  0.2949
 3144UDC     C834581  17.440   0.386  17.633  0.0387  0.7073  0.4908
 3144UDC     C934582  17.555   0.351  17.533  0.3633  0.4842  0.6335
 3144UDC    C1034583  17.641   0.221  17.559 -1.1708 -1.4775 -0.0296
 3144UDC    C1134584  17.609   0.095  17.480 -0.5339 -0.0470 -0.1335
 3145UDC     C134585   1.200   0.862   2.876  0.0288  0.3417 -1.0875
 3145UDC     C234586   1.168   1.011   2.860 -0.1969 -0.4759  0.3827
 3145UDC     C334587   1.173   1.088   2.995 -0.1438  0.5536 -0.6823
 3145UDC     C434588   1.152   1.240   2.984 -0.1272 -0.4855 -0.9483
 3145UDC     C534589   1.276   1.298   2.918 -0.3097 -0.1786  0.6680
 3145UDC     C634590   1.273   1.448   2.888 -0.2269  0.6448  0.4192
 3145UDC     C734591   1.410   1.502   2.837 -0.0408 -0.7488 -0.2707
 3145UDC     C834592   1.439   1.656   2.846 -1.0158 -0.4710 -0.1739
 3145UDC     C934593   1.493   1.734   2.721  0.0836 -0.4751 -0.5212
 3145UDC    C1034594   1.385   1.713   2.609 -0.4042  0.5482 -0.5207
 3145UDC    C1134595   1.363   1.815   2.497 -0.5650 -1.1995 -0.0476
 3146UDC     C134596  17.024   3.155  10.599 -0.2691 -0.4173 -0.4280
 3146UDC     C234597  17.103   3.281  10.651 -0.1574  0.2428  0.9272
 3146UDC     C334598  17.104   3.283  10.803 -0.3139  1.3444  0.1057
 3146UDC     C434599  17.178   3.408  10.854  0.7180  0.5898  0.0499
 3146UDC     C534600  17.115   3.430  10.992  0.1313  0.2257 -0.4293
 3146UDC     C634601  17.203   3.545  11.050  0.2233 -0.1227 -0.2677
 3146UDC     C734602  17.218   3.542  11.199  0.9566 -0.2867 -0.7115
 3146UDC     C834603  17.340   3.634  11.237 -0.7035  0.6745  0.2393
 3146UDC     C934604  17.430   3.561  11.342 -0.3824 -0.5833  0.5086
 3146UDC    C1034605  17.520   3.668  11.397 -1.0766 -0.2371 -0.0584
 3146UDC    C1134606  17.669   3.623  11.378  0.8418 -1.7425  0.4893
 3147UDC     C134607  13.363  12.511  19.425 -0.5224  0.9680  0.3895
 3147UDC     C234608  13.483  12.417  19.381  0.1591  0.1770 -1.0214
 3147UDC     C334609  13.617  12.478  19.446  0.4443  0.4999 -0.4286
 3147UDC     C434610  13.638  12.434  19.596 -0.3065 -0.2014  0.2677
 3147UDC     C534611  13.647  12.280  19.599 -0.7242  0.4853  0.8704
 3147UDC     C634612  13.734  12.211  19.709  0.7444 -0.1337  0.7834
 3147UDC     C734613  13.717  12.060  19.685 -0.4634 -0.0620 -0.5529
 3147UDC     C834614  13.739  11.978  19.814 -0.0305  0.0055 -0.2432
 3147UDC     C934615  13.649  11.858  19.805  0.3320  0.0203 -0.6294
 3147UDC    C1034616  13.633  11.772  19.934  0.7944 -0.0522  0.8460
 3147UDC    C1134617  13.763  11.689  19.966 -0.5633 -0.3356 -1.4478
 3148UDC     C134618  17.193   3.731  17.446  0.2344 -0.0226 -0.0666
 3148UDC     C234619  17.243   3.825  17.565  0.1039  0.5643  0.1472
 3148UDC     C334620  17.383   3.769  17.592  0.6501  0.5414  0.2010
 3148UDC     C434621  17.429   3.780  17.743 -0.7062 -0.2191 -1.0493
 3148UDC     C534622  17.557   3.691  17.770 -0.2687  0.5469 -0.1564
 3148UDC     C634623  17.593   3.652  17.918 -0.1203  0.0039  0.2427
 3148UDC     C734624  17.614   3.769  18.015 -0.0508 -1.2272  0.3253
 3148UDC     C834625  17.588   3.752  18.157  0.1868  0.6000  0.1584
 3148UDC     C934626  17.443   3.763  18.209 -0.2178 -0.9406  0.3066
 3148UDC    C1034627  17.438   3.792  18.354 -0.7107  0.3240  0.2753
 3148UDC    C1134628  17.294   3.796  18.411  0.2636  0.5444 -0.4874
 3149UDC     C134629  12.938   7.741   9.756 -0.2685  0.3375  0.1419
 3149UDC     C234630  13.031   7.624   9.772 -0.3180  0.4085 -0.6284
 3149UDC     C334631  13.131   7.591   9.650  0.4616  1.1288  0.3258
 3149UDC     C434632  13.192   7.725   9.609  0.8276  0.3167  0.3461
 3149UDC     C534633  13.272   7.728   9.480  0.8973 -0.8536  0.6538
 3149UDC     C634634  13.205   7.708   9.347 -0.0882 -0.1983 -0.7708
 3149UDC     C734635  13.283   7.776   9.231  1.5909  0.0634  0.5455
 3149UDC     C834636  13.204   7.877   9.135 -0.3113  0.7853 -0.5129
 3149UDC     C934637  13.105   7.792   9.053  0.2813  0.8239  0.1369
 3149UDC    C1034638  12.973   7.857   9.013  0.5136 -0.3895 -0.4417
 3149UDC    C1134639  12.902   7.759   8.934  0.1222 -0.0164 -0.3542
 3150UDC     C134640   8.493   2.693   5.501  0.5756 -0.5199  0.0167
 3150UDC     C234641   8.367   2.754   5.568 -0.0220  0.0551 -0.7668
 3150UDC     C334642   8.314   2.879   5.498  0.5907 -0.4617  0.6005
 3150UDC     C434643   8.191   2.955   5.555 -0.5922 -0.3705  0.1187
 3150UDC     C534644   8.107   3.010   5.443 -0.3263 -0.8648 -0.2180
 3150UDC     C634645   7.986   3.100   5.482  0.3057  0.6859  0.6637
 3150UDC     C734646   8.010   3.247   5.472  2.0854  0.0908 -0.8757
 3150UDC     C834647   7.881   3.335   5.469 -0.4292 -0.1541 -0.5822
 3150UDC     C934648   7.896   3.485   5.506 -0.0931 -0.1571 -0.0908
 3150UDC    C1034649   7.972   3.555   5.400 -0.6927 -1.1494  0.4526
 3150UDC    C1134650   7.923   3.697   5.389  0.4530  1.0352 -0.1250
 3151UDC     C134651   3.787  18.717  11.704  0.1015  0.5490  0.0531
 3151UDC     C234652   3.756  18.761  11.856  0.3923  0.1296  1.1732
 3151UDC     C334653   3.865  18.851  11.914 -1.5348  0.3075 -0.7646
 3151UDC     C434654   3.829  18.931  12.034  0.2127 -0.2192  0.6020
 3151UDC     C534655   3.949  18.999  12.102  0.1384 -0.5470  0.2892
 3151UDC     C634656   4.047  18.914  12.191  0.1901  1.0144  0.5295
 3151UDC     C734657   4.181  18.984  12.213  0.5589  1.3893  0.4983
 3151UDC     C834658   4.275  18.912  12.312 -0.5085 -1.2927  0.3304
 3151UDC     C934659   4.430  18.948  12.340  1.0112 -0.0858 -0.0764
 3151UDC    C1034660   4.452  19.104  12.348  0.5378  1.1067 -0.9985
 3151UDC    C1134661   4.586  19.167  12.321 -0.1976  0.2957  0.8128
 3152UDC     C134662  15.451   8.310   8.117  0.6917  0.2978 -0.1785
 3152UDC     C234663  15.320   8.236   8.146 -0.9667 -0.7703 -0.7481
 3152UDC     C334664  15.231   8.234   8.022  0.0313  0.3521 -0.1461
 3152UDC     C434665  15.277   8.125   7.931  0.6638 -0.3174  0.4708
 3152UDC     C534666  15.301   7.975   7.986 -0.1248  0.3643 -0.4595
 3152UDC     C634667  15.434   7.929   7.921 -0.2651  0.5659 -0.7984
 3152UDC     C734668  15.452   7.783   7.869 -0.3211  0.5482  1.0022
 3152UDC     C834669  15.589   7.746   7.806  1.1377  0.9032 -0.4535
 3152UDC     C934670  15.617   7.606   7.881 -0.7593  0.2488  1.1570
 3152UDC    C1034671  15.716   7.518   7.807 -0.5324  0.4527 -0.4283
 3152UDC    C1134672  15.663   7.457   7.681  0.5900 -0.1996  0.3762
 3153UDC     C134673  11.367  16.000   9.183 -1.3217 -0.2041 -0.6812
 3153UDC     C234674  11.283  15.943   9.061 -0.4186 -0.5289 -0.3964
 3153UDC     C334675  11.265  15.789   9.041  0.1315 -1.0457 -0.1625
 3153UDC     C434676  11.221  15.745   8.900  0.8055  0.7137 -0.3228
 3153UDC     C534677  11.283  15.820   8.775 -0.2836  0.5623 -0.3968
 3153UDC     C634678  11.238  15.744   8.652 -1.3534 -0.7255 -0.2265
 3153UDC     C734679  11.089  15.752   8.608  0.0081  0.7448  0.7159
 3153UDC     C834680  11.089  15.672   8.474  0.9393  1.5905 -0.2235
 3153UDC     C934681  10.986  15.730   8.366 -1.0482 -0.5590  0.3175
 3153UDC    C1034682  11.077  15.803   8.261  0.0847 -0.3386 -0.3277
 3153UDC    C1134683  10.977  15.877   8.169  0.4877 -0.4850 -0.5481
 3154UDC     C134684  12.773   8.541   5.405  0.3613  0.0917 -0.3600
 3154UDC     C234685  12.922   8.525   5.400 -0.2216  0.5246  0.4480
 3154UDC     C334686  13.017   8.596   5.495 -0.5925  0.1536  0.0638
 3154UDC     C434687  13.164   8.559   5.495 -0.3746 -0.9862  0.7385
 3154UDC     C534688  13.226   8.666   5.589  0.0008 -0.0657  0.1697
 3154UDC     C634689  13.378   8.681   5.607 -1.4027  0.1257  0.1916
 3154UDC     C734690  13.426   8.775   5.722  0.6580 -0.9657  0.2391
 3154UDC     C834691  13.375   8.920   5.701  0.5669  0.1511  0.2732
 3154UDC     C934692  13.468   9.020   5.771 -0.3899  1.1668 -0.5445
 3154UDC    C1034693  13.464   9.173   5.748 -1.3185  0.8220 -0.0360
 3154UDC    C1134694  13.492   9.237   5.613  0.2451 -1.0823 -0.7701
 3155UDC     C134695   6.988  15.522   1.937  0.3362 -0.0117 -0.7961
 3155UDC     C234696   7.038  15.571   2.080  0.6844  0.4593 -0.1073
 3155UDC     C334697   7.148  15.483   2.129 -0.1655 -0.0400 -0.3872
 3155UDC     C434698   7.274  15.468   2.034  0.5923 -0.5579  0.5577
 3155UDC     C534699   7.348  15.335   2.055 -0.7558  0.1113  0.1967
 3155UDC     C634700   7.448  15.293   1.946  0.5188 -0.3831 -0.0550
 3155UDC     C734701   7.371  15.257   1.813 -0.9474  1.0969  0.2673
 3155UDC     C834702   7.454  15.185   1.699 -0.6783  0.4351  0.5354
 3155UDC     C934703   7.521  15.052   1.748  0.5671 -0.0559  0.3677
 3155UDC    C1034704   7.584  14.979   1.633 -0.2916 -0.7136  0.1225
 3155UDC    C1134705   7.570  14.829   1.626 -0.7233 -1.0172 -0.9478
 3156UDC     C134706   1.103   8.531  11.785 -0.1519 -0.3577 -0.0236
 3156UDC     C234707   1.167   8.602  11.665  0.0821 -0.8196 -0.7193
 3156UDC     C334708   1.089   8.586  11.527 -0.2882 -0.0419 -0.5566
 3156UDC     C434709   1.142   8.690  11.424  0.2533  0.5826 -0.3120
 3156UDC     C534710   1.242   8.779  11.506  0.5303  0.7151 -0.3893
 3156UDC     C634711   1.280   8.893  11.415 -0.3067 -1.0271  0.2636
 3156UDC     C734712   1.412   8.954  11.470 -1.0176  0.1009 -0.5788
 3156UDC     C834713   1.449   9.090  11.419  0.2981  0.8409 -0.2657
 3156UDC     C934714   1.596   9.131  11.450  0.3159  0.9612  0.6965
 3156UDC    C1034715   1.620   9.266  11.385 -0.6040 -0.1196  0.7954
 3156UDC    C1134716   1.605   9.303  11.232  0.2207  0.3880 -0.5341
 3157UDC     C134717  16.751  15.768  13.735 -0.6051 -0.8651  0.6261
 3157UDC     C234718  16.729  15.893  13.657  0.5383 -0.2508  0.2761
 3157UDC     C334719  16.622  15.863  13.552 -0.0778 -0.7472 -0.5233
 3157UDC     C434720  16.497  15.958  13.562 -0.3277 -0.2113 -0.4364
 3157UDC     C534721  16.413  15.933  13.689  0.0351 -0.3849 -0.2777
 3157UDC     C634722  16.258  15.941  13.652  1.1843 -0.1656 -0.9062
 3157UDC     C734723  16.179  16.067  13.688  0.1748  0.5722 -0.0802
 3157UDC     C834724  16.039  16.109  13.637  0.2549 -0.0767 -0.3080
 3157UDC     C934725  16.028  16.259  13.604  0.5005  0.0307 -0.3397
 3157UDC    C1034726  15.875  16.286  13.617  0.0400  0.6821  0.1173
 3157UDC    C1134727  15.828  16.400  13.536 -0.7736 -0.0724  1.0818
 3158UDC     C134728  18.780  19.495  17.017  0.3608 -0.8826 -0.5879
 3158UDC     C234729  18.647  19.551  16.971  0.0091 -0.2604  0.6635
 3158UDC     C334730  18.556  19.437  16.927  0.3227  0.0119 -0.9921
 3158UDC     C434731  18.406  19.482  16.921  0.2396 -0.8943  0.0168
 3158UDC     C534732  18.320  19.355  16.926 -0.0079  0.6123  0.1802
 3158UDC     C634733  18.333  19.256  16.813  0.4688  0.4657 -0.3755
 3158UDC     C734734  18.187  19.198  16.786 -0.8890  0.0370  0.2826
 3158UDC     C834735  18.160  19.096  16.894 -0.1342  0.6525  1.0156
 3158UDC     C934736  18.010  19.070  16.929 -0.3152 -0.2858  0.6867
 3158UDC    C1034737  18.004  18.943  17.004  0.4748  0.0430 -1.0926
 3158UDC    C1134738  18.057  18.841  16.906 -0.5942  0.5234  0.1830
 3159UDC     C134739  13.246  14.227  11.242  0.2940 -0.0105 -0.2457
 3159UDC     C234740  13.155  14.103  11.232 -0.6466  0.2562  0.2039
 3159UDC     C334741  13.177  14.046  11.088 -0.3166 -0.2840  0.5150
 3159UDC     C434742  13.215  13.897  11.091  0.4374  0.2053 -0.7729
 3159UDC     C534743  13.230  13.835  10.950  0.6574 -0.3128 -0.2607
 3159UDC     C634744  13.321  13.898  10.850 -0.5431 -0.6797  0.5016
 3159UDC     C734745  13.300  13.839  10.708 -0.1488 -1.3451  0.1923
 3159UDC     C834746  13.434  13.822  10.638 -1.2000  0.2703  0.9520
 3159UDC     C934747  13.534  13.936  10.600 -0.1953 -0.5052  0.0942
 3159UDC    C1034748  13.679  13.889  10.572  0.3432  0.5580  0.6096
 3159UDC    C1134749  13.750  13.814  10.687 -0.5217 -1.1522  0.1669
 3160UDC     C134750   4.646  14.746  18.051 -0.1298  1.2635 -0.6747
 3160UDC     C234751   4.698  14.836  17.937  0.0691  0.6232  0.5086
 3160UDC     C334752   4.716  14.986  17.972  0.2074 -0.1467  0.3594
 3160UDC     C434753   4.765  15.045  18.105  0.2378 -0.0878 -0.1807
 3160UDC     C534754   4.917  15.026  18.131 -0.1716 -0.5665  0.1608
 3160UDC     C634755   4.927  14.928  18.249  0.2757  0.9919 -0.6106
 3160UDC     C734756   5.066  14.897  18.315  0.9422 -0.1028  0.1313
 3160UDC     C834757   5.063  14.818  18.451  1.4393 -0.6927 -0.0313
 3160UDC     C934758   5.120  14.889  18.571 -0.2485 -0.6239  0.0048
 3160UDC    C1034759   5.102  14.813  18.699  1.0570 -0.3906 -0.1669
 3160UDC    C1134760   5.164  14.884  18.824  0.5955 -0.2628  0.3876
 3161UDC     C134761  17.986   3.467   5.488 -0.3185 -0.2564  0.4407
 3161UDC     C234762  18.025   3.390   5.358  0.5600 -0.3801  1.0285
 3161UDC     C334763  18.144   3.296   5.368  0.0546  0.0862 -0.6118
 3161UDC     C434764  18.180   3.214   5.247  0.1410  0.7643 -0.0911
 3161UDC     C534765  18.213   3.066   5.255  1.0253 -0.1882  0.6098
 3161UDC     C634766  18.344   3.026   5.326 -0.0772 -0.1066 -0.5614
 3161UDC     C734767  18.485   3.063   5.267 -0.1711 -0.5511 -0.5240
 3161UDC     C834768  18.608   3.025   5.350  0.3554  0.7936 -0.5045
 3161UDC     C934769  18.594   2.876   5.411  1.0154 -1.4190 -0.3596
 3161UDC    C1034770  18.610   2.757   5.316  1.2345 -0.7404  0.7167
 3161UDC    C1134771  18.738   2.678   5.330  0.3803 -0.3959  1.0180
 3162UDC     C134772   9.610  11.218   7.529  0.0136  0.6783 -0.2760
 3162UDC     C234773   9.670  11.360   7.548  0.5536  0.0045  0.0088
 3162UDC     C334774   9.591  11.447   7.646  0.2030  0.0135 -0.9375
 3162UDC     C434775   9.472  11.530   7.582  1.6567 -1.2981 -0.8476
 3162UDC     C534776   9.331  11.462   7.586 -0.9848 -0.8421 -0.6322
 3162UDC     C634777   9.211  11.516   7.490 -0.5532  0.3616 -0.5708
 3162UDC     C734778   9.082  11.430   7.510  0.0294  0.1572 -0.7170
 3162UDC     C834779   8.973  11.475   7.407  0.5974 -0.5185 -0.8621
 3162UDC     C934780   8.980  11.627   7.395  1.0446 -0.0090 -0.5035
 3162UDC    C1034781   8.978  11.663   7.252 -0.5749  0.5092  1.2303
 3162UDC    C1134782   8.848  11.657   7.186 -0.6368  0.7542  0.7839
 3163UDC     C134783  17.674  15.644   6.098  0.3522 -0.0991  0.6488
 3163UDC     C234784  17.764  15.723   6.001 -0.7023 -0.2491  0.0362
 3163UDC     C334785  17.912  15.750   6.031  0.1118 -0.6028 -0.6904
 3163UDC     C434786  17.999  15.734   5.902  0.4850 -0.1549 -0.3072
 3163UDC     C534787  18.137  15.671   5.925 -1.0518 -0.4585  1.7576
 3163UDC     C634788  18.216  15.635   5.808  0.3664 -0.9524  0.6704
 3163UDC     C734789  18.173  15.535   5.700  0.2603 -0.8978 -0.5319
 3163UDC     C834790  18.286  15.457   5.632 -0.1747 -0.1716  0.1667
 3163UDC     C934791  18.313  15.524   5.500  0.7369  0.0746 -0.0974
 3163UDC    C1034792  18.186  15.582   5.432  1.0222 -0.5810  0.1166
 3163UDC    C1134793  18.102  15.461   5.393  0.1026 -0.3615  0.0763
 3164UDC     C134794  14.071   8.671  16.936  0.3556 -0.5692  1.3291
 3164UDC     C234795  14.154   8.791  16.986  0.5168 -0.7281  0.4643
 3164UDC     C334796  14.080   8.917  16.999 -0.4874 -0.0737 -0.1857
 3164UDC     C434797  14.157   9.035  17.066  0.8941 -0.1818  0.8634
 3164UDC     C534798  14.268   9.108  16.981 -0.1864 -0.2149  0.6298
 3164UDC     C634799  14.337   9.218  17.058  0.1161 -0.6017  0.6813
 3164UDC     C734800  14.397   9.350  16.984  0.2268  0.3576  0.0336
 3164UDC     C834801  14.293   9.440  16.919  0.9469  0.1751 -0.5574
 3164UDC     C934802  14.190   9.514  17.010 -0.6003  0.0747 -0.8294
 3164UDC    C1034803  14.097   9.623  16.946  0.1897  1.3038 -0.2619
 3164UDC    C1134804  14.142   9.765  16.975  0.2303 -1.3185 -0.1805
 3165UDC     C134805  13.861   6.398  17.963  0.4832  0.5047 -0.9317
 3165UDC     C234806  13.835   6.532  17.894 -0.9110  0.2632  0.3072
 3165UDC     C334807  13.774   6.548  17.758 -0.6578 -0.5009 -0.3149
 3165UDC     C434808  13.756   6.700  17.741 -0.0286  0.3376  0.1858
 3165UDC     C534809  13.856   6.782  17.830  0.2414 -0.8538 -1.0950
 3165UDC     C634810  13.812   6.927  17.856 -0.0128  0.0483  0.4394
 3165UDC     C734811  13.838   7.028  17.741  0.2669 -0.4513 -0.4303
 3165UDC     C834812  13.725   7.128  17.728 -0.4031 -0.0401  0.0640
 3165UDC     C934813  13.756   7.274  17.770  1.4356  0.5435 -0.2934
 3165UDC    C1034814  13.715   7.303  17.912  0.2199  0.5180 -0.1359
 3165UDC    C1134815  13.714   7.443  17.972  1.1876  1.4103 -0.3198
 3166UDC     C134816   5.961  15.279  19.034 -0.5130 -0.0374  0.5367
 3166UDC     C234817   5.903  15.423  19.018  0.7445 -0.7867  0.3129
 3166UDC     C334818   5.787  15.436  19.125  0.1351  0.3851 -0.3111
 3166UDC     C434819   5.759  15.581  19.166 -0.4117 -0.6511  1.0555
 3166UDC     C534820   5.609  15.615  19.154 -0.6022  0.2800 -0.4726
 3166UDC     C634821   5.549  15.561  19.028  0.3614 -0.3344  1.5552
 3166UDC     C734822   5.429  15.643  18.960 -1.5335  0.2970 -0.4965
 3166UDC     C834823   5.399  15.609  18.808  0.1184  0.4549  0.1527
 3166UDC     C934824   5.373  15.457  18.778 -0.6456 -0.2015  1.0929
 3166UDC    C1034825   5.263  15.388  18.857 -0.2605  0.2189 -0.4456
 3166UDC    C1134826   5.237  15.241  18.854  0.2085  0.6058  0.0006
 3167UDC     C134827  10.473  12.187  18.945  0.5829 -0.2870 -0.0676
 3167UDC     C234828  10.524  12.063  18.866 -0.7949 -0.3376 -0.9684
 3167UDC     C334829  10.659  12.024  18.926  0.9167 -0.0597 -0.3817
 3167UDC     C434830  10.773  12.120  18.902 -0.1759  0.0676  0.0572
 3167UDC     C534831  10.897  12.071  18.816  0.2734 -0.0155  0.0717
 3167UDC     C634832  10.983  12.168  18.735  1.3073 -0.0707 -0.0063
 3167UDC     C734833  11.114  12.108  18.700  0.4950  0.0863 -0.5557
 3167UDC     C834834  11.225  12.210  18.688  0.1638  0.1659  0.4759
 3167UDC     C934835  11.264  12.228  18.541 -0.3466 -0.5450  0.0819
 3167UDC    C1034836  11.297  12.374  18.513  0.5493  0.4099  0.2705
 3167UDC    C1134837  11.350  12.389  18.370 -0.0067 -0.9358  0.0673
 3168UDC     C134838   3.469   7.850   6.248 -0.0453  0.6767  0.4111
 3168UDC     C234839   3.600   7.879   6.323  0.2216 -0.6169  0.7639
 3168UDC     C334840   3.642   7.796   6.451  0.4915 -0.7775  1.0906
 3168UDC     C434841   3.766   7.696   6.438  0.2687 -1.0029  0.6540
 3168UDC     C534842   3.747   7.575   6.345  0.6974  0.6255 -0.6992
 3168UDC     C634843   3.614   7.490   6.354  0.3409  0.1835  1.0822
 3168UDC     C734844   3.605   7.361   6.268 -0.0094  0.5891 -0.3007
 3168UDC     C834845   3.474   7.278   6.294 -0.0671  0.4931 -1.3115
 3168UDC     C934846   3.468   7.234   6.442  0.5213 -0.7307  0.0067
 3168UDC    C1034847   3.557   7.120   6.496  0.7726  0.2251 -0.4537
 3168UDC    C1134848   3.488   7.068   6.625 -0.2561  0.6590 -0.2823
 3169UDC     C134849   9.532  11.052  15.406 -0.4578  0.0906 -0.9239
 3169UDC     C234850   9.404  10.971  15.368 -0.1328 -0.1017 -0.5819
 3169UDC     C334851   9.311  10.950  15.487 -0.5399 -0.3320 -0.3559
 3169UDC     C434852   9.173  10.898  15.450  0.3604  0.4266  0.1521
 3169UDC     C534853   9.111  10.919  15.310  0.0131  0.7991 -0.2463
 3169UDC     C634854   8.971  10.988  15.301 -0.6458  0.8579 -0.1196
 3169UDC     C734855   8.877  10.900  15.382 -0.1763  1.1241  0.6038
 3169UDC     C834856   8.747  10.908  15.316  1.6227 -0.9498  0.8208
 3169UDC     C934857   8.729  10.891  15.169 -0.7925  1.0003  0.4457
 3169UDC    C1034858   8.579  10.882  15.137 -0.5607 -1.2340  1.3036
 3169UDC    C1134859   8.574  10.937  14.991  1.5613  1.2705 -0.0041
 3170UDC     C134860  12.290   8.808  18.736  0.2399 -0.4809  0.6791
 3170UDC     C234861  12.282   8.938  18.656  0.1590  0.2288  0.6058
 3170UDC     C334862  12.299   9.078  18.720  0.6687 -0.8796 -0.5476
 3170UDC     C434863  12.290   9.199  18.619 -0.1347  0.3524  0.1018
 3170UDC     C534864  12.191   9.186  18.500  0.2663 -0.2662 -1.6498
 3170UDC     C634865  12.218   9.304  18.407  0.3726  0.0531 -0.2333
 3170UDC     C734866  12.098   9.309  18.308 -0.8659 -1.5158 -0.6406
 3170UDC     C834867  12.094   9.433  18.216  0.0331 -0.9986  0.2752
 3170UDC     C934868  12.004   9.396  18.094  0.4288  0.8693  0.4292
 3170UDC    C1034869  12.048   9.279  17.998 -0.3987 -0.2854  0.6689
 3170UDC    C1134870  11.943   9.273  17.892  0.9770  0.4553  0.7851
 3171UDC     C134871  18.236  12.236   1.642  0.0884  0.5056  0.1801
 3171UDC     C234872  18.332  12.167   1.741  1.2206  0.0580 -1.7718
 3171UDC     C334873  18.349  12.018   1.706  0.1206 -0.8774  0.1110
 3171UDC     C434874  18.466  12.002   1.609  1.1010 -0.2631 -0.3190
 3171UDC     C534875  18.450  11.881   1.514 -1.1071  0.1762  0.4828
 3171UDC     C634876  18.545  11.914   1.396  0.1295  0.1480  1.0104
 3171UDC     C734877  18.450  11.986   1.291 -0.9961 -0.9646 -0.9479
 3171UDC     C834878  18.393  11.894   1.186  1.3554  0.8221  0.3036
 3171UDC     C934879  18.280  11.952   1.090  0.5726 -0.4599 -0.7997
 3171UDC    C1034880  18.235  11.857   0.980  0.0192 -0.1628  0.9500
 3171UDC    C1134881  18.084  11.879   0.959 -0.3349  0.4532 -0.5137
 3172UDC     C134882  18.378   0.976   5.543  0.0291 -0.0548  0.3567
 3172UDC     C234883  18.513   0.955   5.614  0.1091  0.3500  0.0768
 3172UDC     C334884  18.628   1.035   5.564 -1.3967  0.4518  0.0620
 3172UDC     C434885  18.712   0.987   5.445 -1.0545  0.7380 -0.0530
 3172UDC     C534886  18.797   1.108   5.389  0.4855 -0.4111  0.3627
 3172UDC     C634887  18.710   1.243   5.381 -0.4217  0.4024  0.9556
 3172UDC     C734888  18.779   1.382   5.372  0.0141 -0.5243  0.2764
 3172UDC     C834889  18.688   1.498   5.417 -0.4388  0.5615  0.1965
 3172UDC     C934890  18.554   1.462   5.369 -0.9440  0.0527  0.3135
 3172UDC    C1034891  18.483   1.601   5.355 -0.4586  0.0531  0.7530
 3172UDC    C1134892  18.338   1.571   5.405 -0.5753  0.5253 -0.9047
 3173UDC     C134893  12.404  13.860  15.181  0.1253 -0.5900 -0.1760
 3173UDC     C234894  12.409  13.833  15.029  0.2187  0.9639 -0.5036
 3173UDC     C334895  12.277  13.882  14.978  0.2607 -0.0558  0.9269
 3173UDC     C434896  12.266  14.031  14.984 -0.1710  0.0087 -0.2566
 3173UDC     C534897  12.151  14.103  14.928  0.2917 -0.0752 -0.2935
 3173UDC     C634898  12.195  14.251  14.938 -0.7631  1.4279 -0.7463
 3173UDC     C734899  12.273  14.297  14.818 -0.0128  0.5617  1.7493
 3173UDC     C834900  12.235  14.445  14.805 -0.1263  0.3797  0.1386
 3173UDC     C934901  12.344  14.551  14.772 -0.1153  0.5138 -0.9439
 3173UDC    C1034902  12.492  14.527  14.813  0.7019  0.4458 -0.4061
 3173UDC    C1134903  12.566  14.643  14.879 -0.3925  0.0524  1.0730
 3174UDC     C134904  17.037   9.714   1.433 -0.0854 -0.2807  0.0165
 3174UDC     C234905  17.189   9.725   1.473  0.5372  0.1140 -0.6220
 3174UDC     C334906  17.239   9.871   1.483  0.2989  0.8907 -0.2433
 3174UDC     C434907  17.388   9.897   1.520 -0.0221 -1.6258  0.8293
 3174UDC     C534908  17.475   9.918   1.392 -0.1217  0.6809  0.1797
 3174UDC     C634909  17.526   9.783   1.329  0.5868 -0.4165 -0.3509
 3174UDC     C734910  17.505   9.749   1.183  0.0058  1.4222  0.9358
 3174UDC     C834911  17.556   9.848   1.072  0.4989  1.5825 -0.0837
 3174UDC     C934912  17.499   9.798   0.936 -0.9210 -0.1194  0.1086
 3174UDC    C1034913  17.545   9.904   0.825  1.4681  0.1282 -0.4056
 3174UDC    C1134914  17.589   9.830   0.696  0.6598 -0.1311 -0.7101
 3175UDC     C134915   5.284   9.112  10.189 -0.3283  0.5275  0.7895
 3175UDC     C234916   5.157   9.075  10.253  0.0911 -0.3661 -0.0150
 3175UDC     C334917   5.110   9.200  10.336  0.3536 -0.4574  0.7443
 3175UDC     C434918   5.097   9.191  10.485 -0.4497  0.7270 -0.0124
 3175UDC     C534919   5.071   9.329  10.544  0.0852 -0.1326 -0.1109
 3175UDC     C634920   5.047   9.317  10.696  0.1463  0.7272  0.5044
 3175UDC     C734921   4.994   9.444  10.765  0.3083 -0.9270  0.4361
 3175UDC     C834922   4.855   9.505  10.729  0.6304 -0.2069  0.2582
 3175UDC     C934923   4.868   9.650  10.681  1.1346  0.0210 -1.3447
 3175UDC    C1034924   4.735   9.703  10.623  0.0298 -0.5202 -0.9780
 3175UDC    C1134925   4.709   9.857  10.628 -0.2504  0.7223  0.0353
 3176UDC     C134926  15.283  11.345   5.527  0.2972  0.0260  0.3841
 3176UDC     C234927  15.127  11.364   5.492 -0.2706 -0.1338  0.4553
 3176UDC     C334928  15.075  11.509   5.501  1.3044 -0.4617  0.8026
 3176UDC     C434929  15.093  11.594   5.629  1.0767  0.3662  0.5392
 3176UDC     C534930  15.048  11.508   5.749  0.3526 -0.7054 -0.0497
 3176UDC     C634931  15.060  11.551   5.897  0.4257 -0.1247 -0.2332
 3176UDC     C734932  15.197  11.594   5.946  0.4298 -0.3052 -0.1886
 3176UDC     C834933  15.174  11.678   6.069  0.0250 -0.7920 -0.8627
 3176UDC     C934934  15.072  11.794   6.063  0.1784  0.3240  0.9480
 3176UDC    C1034935  15.061  11.883   6.184  0.4752 -0.6132  0.4756
 3176UDC    C1134936  14.995  12.014   6.163 -0.2090 -0.9906  0.1160
 3177UDC     C134937   6.993  11.762   6.442  0.0077 -0.4763  0.4456
 3177UDC     C234938   7.101  11.662   6.493 -0.8493  0.3969  0.0350
 3177UDC     C334939   7.113  11.536   6.396 -0.4027  0.4909 -0.3596
 3177UDC     C434940   7.249  11.455   6.405  0.4549 -0.6566 -0.4481
 3177UDC     C534941   7.289  11.418   6.556 -1.2929 -0.3818  0.5180
 3177UDC     C634942   7.211  11.307   6.618 -1.2131 -0.2510  0.2564
 3177UDC     C734943   7.253  11.292   6.767 -0.8936  0.3923  0.8937
 3177UDC     C834944   7.401  11.254   6.785 -0.6858 -0.2085  0.4434
 3177UDC     C934945   7.430  11.111   6.736 -0.3056 -0.9640 -1.1373
 3177UDC    C1034946   7.572  11.047   6.740  0.8505  0.4021  0.0495
 3177UDC    C1134947   7.677  11.138   6.687 -0.2927 -0.5892  1.0711
 3178UDC     C134948   4.678   8.263  14.962 -0.5565  0.5590 -0.9816
 3178UDC     C234949   4.593   8.183  14.864  0.3700  0.0895 -0.2131
 3178UDC     C334950   4.606   8.034  14.883  1.0850  0.2174 -0.7076
 3178UDC     C434951   4.536   7.970  15.012  1.0536 -0.2820  0.5336
 3178UDC     C534952   4.387   7.973  15.014  0.0227 -0.1798  0.2847
 3178UDC     C634953   4.341   8.048  15.138 -0.9926  0.3706  0.2928
 3178UDC     C734954   4.200   8.115  15.143 -0.1906  0.1604 -0.3745
 3178UDC     C834955   4.166   8.144  15.293  0.2722  0.3959 -1.1475
 3178UDC     C934956   4.272   8.235  15.369  1.0714  1.0204 -0.7542
 3178UDC    C1034957   4.244   8.248  15.518  0.1615  0.1723  0.4394
 3178UDC    C1134958   4.251   8.102  15.561  0.4216 -0.0310 -0.9559
 3179UDC     C134959  18.581  13.388  13.238 -0.7615 -0.1158 -1.0665
 3179UDC     C234960  18.546  13.362  13.088  1.2832 -0.1146  0.1017
 3179UDC     C334961  18.520  13.214  13.058  0.7551  0.4557 -0.1117
 3179UDC     C434962  18.369  13.174  13.076 -0.4521 -0.4226  0.9742
 3179UDC     C534963  18.277  13.254  12.981  0.3582 -0.6566  0.2595
 3179UDC     C634964  18.154  13.290  13.064 -0.5261 -0.6507 -0.2262
 3179UDC     C734965  18.053  13.176  13.080  0.7852  0.2603  0.1790
 3179UDC     C834966  18.030  13.146  13.237 -0.3695 -0.1263 -0.0211
 3179UDC     C934967  17.892  13.082  13.263 -0.5414  0.7504  1.0961
 3179UDC    C1034968  17.798  13.176  13.186 -0.7824  0.1656  0.5424
 3179UDC    C1134969  17.785  13.318  13.254 -0.0382  0.2816  0.5665
 3180UDC     C134970  13.763  10.243   7.936 -0.8672 -0.2353  0.1330
 3180UDC     C234971  13.908  10.267   7.971 -0.1463 -0.5860  1.6293
 3180UDC     C334972  14.004  10.240   7.849  0.5288  0.1668  0.5179
 3180UDC     C434973  14.036  10.361   7.758  0.4090 -0.4259  0.5836
 3180UDC     C534974  13.926  10.461   7.712 -1.0034 -1.1023  0.1927
 3180UDC     C634975  13.862  10.419   7.579 -0.3673  0.7700 -0.4758
 3180UDC     C734976  13.747  10.518   7.551  0.7237 -0.2867 -0.0283
 3180UDC     C834977  13.784  10.645   7.469 -0.5668  0.9246  0.1655
 3180UDC     C934978  13.894  10.733   7.528  0.0629  0.5933 -0.5086
 3180UDC    C1034979  13.940  10.835   7.422 -0.9190 -0.0516  0.3124
 3180UDC    C1134980  14.049  10.937   7.454 -0.4329 -0.2274 -0.4270
 3181UDC     C134981   4.204  16.370   2.434 -0.4239 -0.8763 -0.0109
 3181UDC     C234982   4.323  16.441   2.377  1.9339 -0.9300  0.8485
 3181UDC     C334983   4.436  16.481   2.470  1.0829  0.0245  0.8808
 3181UDC     C434984   4.545  16.551   2.391  0.3304  0.8901 -0.3129
 3181UDC     C534985   4.663  16.613   2.466  0.3922  0.0840  0.1532
 3181UDC     C634986   4.787  16.626   2.368 -0.3414  0.1236  0.0921
 3181UDC     C734987   4.890  16.707   2.448 -0.0682 -0.5165 -0.0389
 3181UDC     C834988   4.898  16.635   2.586  0.1183  1.1132 -0.8712
 3181UDC     C934989   4.998  16.711   2.664 -0.1667 -1.2906  0.1422
 3181UDC    C1034990   4.992  16.669   2.809 -0.3321  0.6486 -0.0673
 3181UDC    C1134991   5.016  16.517   2.842  0.6080 -0.2134 -0.1164
 3182UDC     C134992  19.956   5.798  19.022 -0.3162  0.3445 -0.2202
 3182UDC     C234993  19.928   5.941  19.054 -0.0271 -0.4049 -0.3966
 3182UDC     C334994  19.936   5.971  19.204  0.4528  0.0840  1.7638
 3182UDC     C434995  19.844   5.870  19.280 -0.8301 -0.2573 -0.6151
 3182UDC     C534996  19.838   5.887  19.437  0.1937 -0.3865  0.0041
 3182UDC     C634997  19.735   5.788  19.503  0.8450  0.2327  0.3271
 3182UDC     C734998  19.724   5.807  19.659 -0.7343  1.1067  1.4557
 3182UDC     C834999  19.859   5.758  19.710 -0.3782 -0.1986 -0.8731
 3182UDC     C935000  19.876   5.727  19.861 -0.5827 -0.6425  1.0215
 3182UDC    C1035001  20.005   5.661  19.906  0.1476  0.0421  1.0403
 3182UDC    C1135002  20.124   5.752  19.873  0.3947 -0.3902 -0.3701
 3183UDC     C135003   9.641  16.566  15.419 -0.4186 -0.7571  0.2428
 3183UDC     C235004   9.544  16.451  15.407 -0.3243 -0.3982 -0.2050
 3183UDC     C335005   9.542  16.349  15.518  1.0792  0.1486  1.6995
 3183UDC     C435006   9.671  16.324  15.595  0.9768  0.7970 -0.4660
 3183UDC     C535007   9.746  16.195  15.565  0.2067 -0.0995 -0.5774
 3183UDC     C635008   9.891  16.193  15.618  0.4906 -1.1238  0.7952
 3183UDC     C735009   9.957  16.061  15.585 -0.2276 -1.1767  0.1969
 3183UDC     C835010  10.020  16.004  15.711 -1.0736 -0.9893  0.0364
 3183UDC     C935011  10.027  15.853  15.702 -0.1330 -0.8181 -0.3460
 3183UDC    C1035012  10.106  15.824  15.576  0.5692 -0.0442 -0.0461
 3183UDC    C1135013  10.258  15.793  15.579  0.2846 -1.6665 -0.4853
 3184UDC     C135014   5.127   0.845   5.444 -0.1240 -0.7979 -0.9764
 3184UDC     C235015   5.213   0.777   5.550  0.1928 -0.9652  0.4302
 3184UDC     C335016   5.174   0.629   5.568 -0.2107 -0.0942  0.4588
 3184UDC     C435017   5.064   0.596   5.663  0.6980  0.2192 -1.0989
 3184UDC     C535018   5.016   0.449   5.692 -0.4130 -0.4049  1.1854
 3184UDC     C635019   5.038   0.368   5.568 -0.2020  0.4924 -0.3422
 3184UDC     C735020   4.934   0.252   5.572 -0.0848 -1.0825  0.2432
 3184UDC     C835021   4.792   0.298   5.536  1.1553  0.1704  0.2838
 3184UDC     C935022   4.676   0.198   5.541 -0.6363  0.8884  0.2888
 3184UDC    C1035023   4.539   0.248   5.534  0.5433 -0.3539  0.0181
 3184UDC    C1135024   4.506   0.341   5.648 -0.6639 -0.1005  0.5321
 3185UDC     C135025  14.584  12.602  19.461  0.8980 -0.1509  0.0496
 3185UDC     C235026  14.561  12.470  19.379 -0.3454  0.5582  0.0772
 3185UDC     C335027  14.663  12.468  19.258  0.8731  0.9593 -0.2871
 3185UDC     C435028  14.671  12.337  19.164  0.4043  0.2461 -0.3301
 3185UDC     C535029  14.532  12.321  19.091  0.2082  0.7502 -0.2959
 3185UDC     C635030  14.526  12.177  19.023 -0.7260 -1.5091 -0.8457
 3185UDC     C735031  14.629  12.174  18.908  0.4758  0.3699  1.1268
 3185UDC     C835032  14.574  12.070  18.808  0.1009 -0.4773  0.8381
 3185UDC     C935033  14.650  12.018  18.687 -0.0309  0.3839 -0.2389
 3185UDC    C1035034  14.589  11.889  18.626 -0.7143 -0.8264 -0.5099
 3185UDC    C1135035  14.441  11.909  18.596 -0.5607  1.0661 -0.1528
 3186UDC     C135036  15.053   1.135   9.527  1.1526  0.0066  0.9472
 3186UDC     C235037  14.922   1.076   9.461 -0.2445  0.3063 -1.0306
 3186UDC     C335038  14.850   0.969   9.542  1.2700  0.8186 -0.2553
 3186UDC     C435039  14.843   0.972   9.693 -0.4027  1.0848 -0.4531
 3186UDC     C535040  14.794   0.842   9.765 -0.2078 -0.9617  0.6964
 3186UDC     C635041  14.905   0.747   9.809  0.3428 -0.3482 -0.1761
 3186UDC     C735042  14.853   0.612   9.866 -0.5461 -1.0063 -0.0629
 3186UDC     C835043  14.819   0.503   9.765 -0.9487  0.2456  0.8329
 3186UDC     C935044  14.725   0.401   9.834 -0.1392 -0.2546 -0.8106
 3186UDC    C1035045  14.752   0.267   9.776 -0.0721  0.8502  0.8870
 3186UDC    C1135046  14.615   0.201   9.769 -0.1627  0.1181  0.7767
 3187UDC     C135047   0.758  19.750  18.707 -0.6853  0.0463  0.3079
 3187UDC     C235048   0.662  19.732  18.823 -0.7780 -0.5875  0.3618
 3187UDC     C335049   0.725  19.735  18.968  0.6119 -0.7970  0.1956
 3187UDC     C435050   0.629  19.699  19.082  0.9250  0.2425 -0.1198
 3187UDC     C535051   0.698  19.705  19.213 -0.4878  0.4962 -0.8048
 3187UDC     C635052   0.621  19.657  19.332  0.9208  0.3546  0.5008
 3187UDC     C735053   0.726  19.627  19.438 -0.1089  0.4382 -0.4050
 3187UDC     C835054   0.797  19.754  19.488  0.1680 -0.1284 -0.1591
 3187UDC     C935055   0.911  19.765  19.597  0.0369  0.2665 -0.3841
 3187UDC    C1035056   0.955  19.907  19.603 -0.7612  0.6437  0.0615
 3187UDC    C1135057   0.987  19.962  19.463  0.4629 -0.0833  0.2604
 3188UDC     C135058   3.593  17.488  18.583  0.4372 -0.9419 -0.2578
 3188UDC     C235059   3.444  17.443  18.592  0.1147 -0.3036 -0.2985
 3188UDC     C335060   3.427  17.327  18.498  0.1329  0.7595  0.5454
 3188UDC     C435061   3.420  17.357  18.343 -0.0858  0.5759 -0.5445
 3188UDC     C535062   3.502  17.241  18.280 -0.0356 -0.1888  0.5354
 3188UDC     C635063   3.464  17.238  18.132  0.0625 -0.9413  0.6902
 3188UDC     C735064   3.515  17.116  18.051 -0.2073  0.5879  0.8166
 3188UDC     C835065   3.442  17.093  17.925  0.8672  0.9067  1.3189
 3188UDC     C935066   3.475  16.990  17.820 -0.7466 -0.0567  0.5931
 3188UDC    C1035067   3.352  16.959  17.731  0.6459  0.1450 -0.1862
 3188UDC    C1135068   3.226  16.930  17.817  0.1562  0.5314  0.1577
 3189UDC     C135069   5.725  12.953  16.212 -1.2422 -0.4973 -0.1908
 3189UDC     C235070   5.717  13.093  16.287 -0.8862 -0.2793  0.1497
 3189UDC     C335071   5.860  13.152  16.312  1.6118 -0.3311 -0.1719
 3189UDC     C435072   5.946  13.041  16.371  0.3008 -0.0154  0.2430
 3189UDC     C535073   6.067  13.098  16.445  0.5775  1.9475 -0.6024
 3189UDC     C635074   6.161  12.990  16.513  0.3727  0.1887  0.3569
 3189UDC     C735075   6.141  13.005  16.662 -0.4120 -1.4286  0.5347
 3189UDC     C835076   6.152  12.865  16.720  0.2945  0.4960 -0.7332
 3189UDC     C935077   6.278  12.827  16.797  1.3439  0.1494 -0.9158
 3189UDC    C1035078   6.281  12.693  16.870  0.5473  0.4069 -0.2677
 3189UDC    C1135079   6.208  12.577  16.798 -1.0930 -0.6615  0.2619
 3190UDC     C135080   3.577   3.982   9.667 -0.0577  0.4915 -0.8209
 3190UDC     C235081   3.475   4.091   9.614 -0.0131  0.6468 -1.3770
 3190UDC     C335082   3.330   4.045   9.622  0.9450 -0.1631  0.0786
 3190UDC     C435083   3.239   4.165   9.580  0.5758 -0.4005 -0.3988
 3190UDC     C535084   3.093   4.149   9.613 -0.5169  0.1138  0.9971
 3190UDC     C635085   2.989   4.259   9.569 -0.4976  0.8488 -0.3935
 3190UDC     C735086   2.967   4.293   9.422 -0.2192  0.7856  0.0262
 3190UDC     C835087   2.830   4.351   9.396  1.1241  0.5300 -0.0283
 3190UDC     C935088   2.807   4.386   9.243  0.6506 -0.6837  0.3609
 3190UDC    C1035089   2.882   4.510   9.188 -1.1603 -0.8439 -0.8136
 3190UDC    C1135090   2.837   4.549   9.049 -0.1841  0.2002 -0.2661
 3191UDC     C135091  15.582   8.842   3.362  0.3014 -0.2885 -1.0267
 3191UDC     C235092  15.716   8.897   3.305 -0.0977  0.3558  0.4497
 3191UDC     C335093  15.688   9.011   3.204  0.3593 -0.2489  1.2775
 3191UDC     C435094  15.817   9.108   3.210  0.5744  1.0655 -0.3205
 3191UDC     C535095  15.821   9.213   3.097  0.7356  1.2636  0.8565
 3191UDC     C635096  15.844   9.165   2.955 -0.3098 -0.9830 -0.2619
 3191UDC     C735097  15.705   9.149   2.905 -0.1801 -0.9078 -0.4327
 3191UDC     C835098  15.691   9.055   2.781  0.7930 -0.9316 -1.3436
 3191UDC     C935099  15.564   9.029   2.699  1.1244 -0.2591  0.3021
 3191UDC    C1035100  15.444   9.003   2.797  0.1923 -0.2351  0.3054
 3191UDC    C1135101  15.324   8.968   2.712  0.0272  0.6568  0.0750
 3192UDC     C135102   0.140   5.712  17.395 -0.4663  0.5565 -0.8149
 3192UDC     C235103   0.114   5.597  17.311 -0.0395  0.3623  0.4803
 3192UDC     C335104  -0.028   5.533  17.337 -0.6723 -0.0328  0.4354
 3192UDC     C435105  -0.036   5.436  17.452  0.3004  0.9943 -0.4323
 3192UDC     C535106  -0.131   5.317  17.420 -0.0223 -0.6094  0.3192
 3192UDC     C635107  -0.117   5.193  17.511 -0.4295 -0.3827  0.0143
 3192UDC     C735108  -0.193   5.081  17.450  0.0176  0.1915 -0.4561
 3192UDC     C835109  -0.306   5.152  17.385  0.5319  0.0466  0.4416
 3192UDC     C935110  -0.421   5.055  17.371  0.4246  0.2447  0.4434
 3192UDC    C1035111  -0.540   5.131  17.306 -0.1256  0.3423  0.3422
 3192UDC    C1135112  -0.672   5.061  17.330  0.1677  0.7728  0.0063
 3193UDC     C135113   0.738   0.534   4.601 -0.2588  0.6134  0.8142
 3193UDC     C235114   0.687   0.660   4.529 -0.1467  0.2269 -0.1203
 3193UDC     C335115   0.542   0.642   4.470 -1.2102 -0.4846 -0.2540
 3193UDC     C435116   0.451   0.747   4.540  0.1338  0.1599  0.0625
 3193UDC     C535117   0.326   0.778   4.452 -0.1707  0.0455 -0.2064
 3193UDC     C635118   0.248   0.646   4.439 -0.7885  0.9560  0.0630
 3193UDC     C735119   0.132   0.629   4.340 -0.5483 -0.0107 -0.0788
 3193UDC     C835120   0.060   0.495   4.372  0.1947  0.0739 -0.6134
 3193UDC     C935121   0.108   0.440   4.506  0.1130  0.1588 -0.2125
 3193UDC    C1035122   0.070   0.293   4.533 -0.0825 -0.2803 -0.8685
 3193UDC    C1135123   0.084   0.255   4.683  0.6340 -0.9606  0.9150
 3194UDC     C135124  13.622  16.375   1.401  1.2795  0.0813  0.7382
 3194UDC     C235125  13.637  16.253   1.317 -0.1860  0.5207  1.4221
 3194UDC     C335126  13.720  16.144   1.378 -0.1096  0.8885 -1.1276
 3194UDC     C435127  13.814  16.062   1.294  0.5561 -0.2824  0.1113
 3194UDC     C535128  13.954  16.133   1.275 -0.6427 -0.0327  1.0958
 3194UDC     C635129  14.028  16.128   1.409 -0.0270  0.6468  0.4362
 3194UDC     C735130  14.094  15.988   1.423 -0.9684 -0.4917 -0.0697
 3194UDC     C835131  14.155  15.959   1.288  0.0079 -0.6176  0.2499
 3194UDC     C935132  14.237  15.833   1.268  0.2213  0.6692 -0.0700
 3194UDC    C1035133  14.292  15.830   1.126 -0.4535  0.0592  0.4924
 3194UDC    C1135134  14.373  15.959   1.085 -0.6388 -1.1539 -0.0509
 3195UDC     C135135   9.437   9.446   7.963  0.9900 -0.4612 -0.3195
 3195UDC     C235136   9.305   9.467   7.885 -0.2832 -0.0222  0.2790
 3195UDC     C335137   9.267   9.618   7.871 -1.3652 -0.4936 -0.8938
 3195UDC     C435138   9.226   9.665   8.017  0.0680 -0.0409  0.3739
 3195UDC     C535139   9.081   9.645   8.060 -0.6607 -0.1364 -0.5074
 3195UDC     C635140   9.057   9.704   8.202 -1.3409  0.2986 -0.3760
 3195UDC     C735141   8.919   9.715   8.258 -0.2100 -0.7677 -1.2153
 3195UDC     C835142   8.942   9.705   8.414 -0.6154  0.9899  0.6265
 3195UDC     C935143   8.819   9.733   8.505  0.1058  0.5099  0.3788
 3195UDC    C1035144   8.838   9.737   8.656 -0.3763  0.3373  0.9823
 3195UDC    C1135145   8.911   9.879   8.691 -0.2868 -0.0857 -0.7393
 3196UDC     C135146   1.496   4.527  14.647 -0.0781  0.4292 -1.1877
 3196UDC     C235147   1.597   4.508  14.762  0.3377  0.6198  0.7957
 3196UDC     C335148   1.546   4.466  14.904  0.6947 -0.8326 -0.4001
 3196UDC     C435149   1.510   4.592  14.971 -0.4297 -0.1644 -0.9842
 3196UDC     C535150   1.387   4.613  15.066 -0.8398 -0.5786 -0.6333
 3196UDC     C635151   1.397   4.533  15.195  0.7146 -0.5071  0.2665
 3196UDC     C735152   1.281   4.535  15.295  0.0249  0.7229 -0.6552
 3196UDC     C835153   1.154   4.478  15.238  0.6906 -0.1896 -0.0151
 3196UDC     C935154   1.169   4.324  15.217  0.6887  1.3619 -0.3130
 3196UDC    C1035155   1.042   4.236  15.215 -0.0670 -0.1666  0.7846
 3196UDC    C1135156   0.913   4.271  15.133 -1.7246  0.7451  1.1608
 3197UDC     C135157  14.339   8.871  15.298  0.0916 -0.6909  1.5427
 3197UDC     C235158  14.326   8.970  15.418  0.7329 -1.0584  1.5717
 3197UDC     C335159  14.224   8.938  15.526 -0.1732  0.5314 -1.1122
 3197UDC     C435160  14.259   8.830  15.636 -0.0925  0.6641 -0.3728
 3197UDC     C535161  14.388   8.855  15.723  0.3697 -0.3496  0.1156
 3197UDC     C635162  14.405   8.753  15.837 -0.0846 -0.3075  0.2896
 3197UDC     C735163  14.543   8.737  15.899  0.3716 -1.3819  0.3314
 3197UDC     C835164  14.627   8.625  15.847 -0.5594 -0.2705 -0.5248
 3197UDC     C935165  14.571   8.487  15.904 -1.3286  1.1312  0.4175
 3197UDC    C1035166  14.627   8.357  15.844  0.3876  0.1714  0.9727
 3197UDC    C1135167  14.548   8.228  15.880  0.5109 -0.3157 -0.7516
 3198UDC     C135168  15.249   9.466   7.070  1.2241  0.5306  0.0207
 3198UDC     C235169  15.283   9.351   7.170  0.5994  1.3571  1.3261
 3198UDC     C335170  15.238   9.210   7.117 -0.7743  0.2466 -0.4635
 3198UDC     C435171  15.307   9.092   7.186  0.4819  0.7761  0.9512
 3198UDC     C535172  15.244   8.957   7.132 -0.8777  0.3000  0.5226
 3198UDC     C635173  15.296   8.834   7.206  0.3951  0.6760  0.1821
 3198UDC     C735174  15.271   8.687   7.151 -0.6378 -0.2856 -0.4903
 3198UDC     C835175  15.298   8.691   6.997 -0.1645 -0.2594 -0.4420
 3198UDC     C935176  15.443   8.740   6.956 -0.7566 -0.2894  0.2659
 3198UDC    C1035177  15.511   8.615   6.900  1.0822 -1.1006  0.6749
 3198UDC    C1135178  15.650   8.571   6.953 -0.7402 -0.7218 -0.2817
 3199UDC     C135179   9.360  11.519   9.046  0.9485 -0.2793  0.1702
 3199UDC     C235180   9.210  11.496   9.045 -0.6363 -1.2765  0.2233
 3199UDC     C335181   9.162  11.350   9.002 -1.2969 -0.7056  0.4201
 3199UDC     C435182   9.012  11.341   8.983  0.0807  0.0228 -0.0203
 3199UDC     C535183   8.938  11.343   9.122 -0.4378  0.0986  0.0611
 3199UDC     C635184   8.786  11.338   9.095  0.6554 -0.5586 -0.6707
 3199UDC     C735185   8.724  11.412   9.206  1.0544 -0.4430 -1.1440
 3199UDC     C835186   8.573  11.435   9.202  0.0920  0.8875 -0.6972
 3199UDC     C935187   8.490  11.307   9.167 -0.0040  0.2787 -0.2684
 3199UDC    C1035188   8.429  11.319   9.026  0.0139 -0.4242  0.2512
 3199UDC    C1135189   8.382  11.449   8.959  0.6516  1.0121 -0.2608
 3200UDC     C135190  12.858   0.635  13.145 -0.5794  0.3594  0.3298
 3200UDC     C235191  12.780   0.769  13.142 -0.7020  0.0957  0.0994
 3200UDC     C335192  12.680   0.791  13.262 -0.3386 -0.6914  0.0425
 3200UDC     C435193  12.531   0.764  13.217 -0.6474  0.9733  0.5555
 3200UDC     C535194  12.491   0.616  13.249 -0.5154  1.0236 -0.4829
 3200UDC     C635195  12.422   0.537  13.134 -0.5827 -0.9660 -0.0510
 3200UDC     C735196  12.293   0.589  13.065 -0.5019  0.6445  0.4950
 3200UDC     C835197  12.259   0.464  12.967 -0.0144 -1.4083 -1.0353
 3200UDC     C935198  12.116   0.456  12.915  0.1723 -0.8488  0.4302
 3200UDC    C1035199  12.090   0.549  12.789  0.7996 -0.0400 -0.3841
 3200UDC    C1135200  11.935   0.550  12.747 -0.6358  0.4571  0.4185
 3201UDC     C135201  13.154   3.111  11.030  1.1437  0.0476 -0.3021
 3201UDC     C235202  13.083   3.178  10.908 -0.7746 -1.0930  0.3727
 3201UDC     C335203  12.938   3.139  10.924  0.4457  0.7772 -1.9406
 3201UDC     C435204  12.844   3.210  10.836 -0.6003  0.6829  0.8742
 3201UDC     C535205  12.704   3.144  10.828 -0.1697  0.1070 -0.3401
 3201UDC     C635206  12.692   3.012  10.757 -0.2551  0.3245 -0.3766
 3201UDC     C735207  12.554   2.933  10.748 -0.1362  0.4481 -0.1816
 3201UDC     C835208  12.417   3.006  10.738 -1.6778 -0.0951  1.2819
 3201UDC     C935209  12.332   3.002  10.615  0.8539  0.8753 -0.7647
 3201UDC    C1035210  12.188   3.053  10.624  0.1060 -0.7445 -0.4417
 3201UDC    C1135211  12.090   3.065  10.499 -0.7013  0.0642  0.3076
 3202UDC     C135212   2.991  17.160  13.450 -0.7161 -1.0392 -0.2033
 3202UDC     C235213   2.863  17.222  13.488  1.1056  0.2215  0.3506
 3202UDC     C335214   2.769  17.224  13.366 -0.7445  1.0251  0.7310
 3202UDC     C435215   2.632  17.286  13.392 -0.6314  0.8792  0.1294
 3202UDC     C535216   2.552  17.172  13.458  0.2324 -0.1112  0.1839
 3202UDC     C635217   2.402  17.164  13.415 -0.0764 -0.4491  1.2620
 3202UDC     C735218   2.355  17.016  13.449  0.7358 -0.7705 -0.1537
 3202UDC     C835219   2.210  16.992  13.402  1.0877 -0.1706  0.1410
 3202UDC     C935220   2.160  16.849  13.426  0.5997  0.2187 -0.0043
 3202UDC    C1035221   2.117  16.824  13.573 -0.0206 -0.3325 -0.5665
 3202UDC    C1135222   1.983  16.868  13.630 -0.0276  0.0119 -0.0039
 3203UDC     C135223   3.943  15.716  13.729 -0.0917  0.9072  0.1043
 3203UDC     C235224   3.925  15.748  13.576  0.2598 -0.6367 -0.3263
 3203UDC     C335225   3.783  15.762  13.518  0.6602 -0.9879 -0.8925
 3203UDC     C435226   3.688  15.868  13.583  0.7172 -0.0974  0.6337
 3203UDC     C535227   3.547  15.860  13.523  1.0331  0.2743 -0.1144
 3203UDC     C635228   3.451  15.751  13.564 -0.8487 -0.6803 -0.0422
 3203UDC     C735229   3.324  15.793  13.652 -0.6216  1.0756  0.2437
 3203UDC     C835230   3.218  15.679  13.649  0.1057 -0.8281 -0.4504
 3203UDC     C935231   3.274  15.542  13.699  0.0693 -0.2242 -0.5726
 3203UDC    C1035232   3.164  15.442  13.727 -0.7523 -1.1909 -0.6051
 3203UDC    C1135233   3.069  15.442  13.608 -0.6952  0.0138 -0.0701
 3204UDC     C135234   5.715   3.895  12.261  0.3782  0.3562  0.6328
 3204UDC     C235235   5.854   3.955  12.275 -0.2563 -0.9886  0.7396
 3204UDC     C335236   5.968   3.860  12.270 -0.7916  1.2305 -0.4834
 3204UDC     C435237   6.052   3.866  12.399 -0.3935  0.6595  0.4433
 3204UDC     C535238   6.197   3.809  12.372  0.2331  1.4471  0.1061
 3204UDC     C635239   6.280   3.823  12.499  0.1912  0.2586 -0.2365
 3204UDC     C735240   6.426   3.772  12.516  0.6302 -0.2585  0.5335
 3204UDC     C835241   6.488   3.718  12.384  0.8103  1.9153 -0.3211
 3204UDC     C935242   6.606   3.621  12.392  0.0343  0.9066  0.8669
 3204UDC    C1035243   6.600   3.525  12.260 -0.5030 -0.2376 -1.0763
 3204UDC    C1135244   6.648   3.379  12.274  0.2349 -0.0250  0.5550
 3205UDC     C135245  13.133   4.604   2.723 -0.1711 -0.5521 -0.3661
 3205UDC     C235246  13.092   4.641   2.870  0.3786 -0.2594 -0.3568
 3205UDC     C335247  13.037   4.514   2.929  0.2231 -0.6781  0.7386
 3205UDC     C435248  12.988   4.527   3.069  0.6917 -1.1251  0.0863
 3205UDC     C535249  12.855   4.609   3.062 -0.9140  1.0000 -0.5341
 3205UDC     C635250  12.789   4.628   3.197 -1.0595  0.3260 -0.0517
 3205UDC     C735251  12.717   4.495   3.241  0.0643 -0.4057 -0.6686
 3205UDC     C835252  12.588   4.441   3.168 -0.5337 -0.3060  0.3579
 3205UDC     C935253  12.485   4.375   3.266  0.0108  0.9707  0.0132
 3205UDC    C1035254  12.437   4.463   3.381 -0.2062  0.1401 -0.6992
 3205UDC    C1135255  12.361   4.573   3.310 -0.1169 -0.4489 -0.0572
 3206UDC     C135256  19.122   1.076  15.455 -0.0946  0.1893 -0.8591
 3206UDC     C235257  19.022   0.979  15.398  0.3922  0.0391  0.2955
 3206UDC     C335258  18.957   0.901  15.514  1.0895  0.2607 -0.1528
 3206UDC     C435259  18.872   1.002  15.602  0.8313 -0.7773 -0.8195
 3206UDC     C535260  18.827   0.977  15.749  1.0511 -0.2025  0.0818
 3206UDC     C635261  18.677   1.018  15.746 -0.6091 -0.9211  0.6298
 3206UDC     C735262  18.669   1.164  15.701  1.3140 -0.1709  0.5827
 3206UDC     C835263  18.535   1.202  15.617 -0.0581 -0.2363 -0.0214
 3206UDC     C935264  18.420   1.125  15.688 -0.3054 -0.5837  0.4365
 3206UDC    C1035265  18.293   1.128  15.602  0.5037  0.0646  0.2519
 3206UDC    C1135266  18.203   1.022  15.663  0.0512  0.7065  0.2216
 3207UDC     C135267   1.828  14.377  16.229 -0.0895  0.3886  2.2296
 3207UDC     C235268   1.836  14.466  16.105  1.1496  0.5630  0.4658
 3207UDC     C335269   1.782  14.601  16.134  0.4601 -0.0751 -0.0846
 3207UDC     C435270   1.656  14.594  16.223 -0.8494  0.3054  0.4765
 3207UDC     C535271   1.586  14.725  16.241 -0.6960  0.0332 -1.0821
 3207UDC     C635272   1.438  14.699  16.213 -0.2712  0.3035  0.4148
 3207UDC     C735273   1.342  14.657  16.325  0.2934 -0.2002 -0.5228
 3207UDC     C835274   1.197  14.601  16.300 -0.7582 -0.1918  0.1663
 3207UDC     C935275   1.114  14.560  16.420  0.3414 -0.6518  1.0382
 3207UDC    C1035276   1.063  14.690  16.495 -0.4646  0.7141 -0.2388
 3207UDC    C1135277   0.944  14.748  16.419  0.7749 -0.5322 -0.7193
 3208UDC     C135278  10.652  10.785  19.606  1.0638  0.2019  0.3403
 3208UDC     C235279  10.726  10.737  19.477 -0.1824  0.5556 -0.1077
 3208UDC     C335280  10.847  10.832  19.459  0.6017  0.4678  0.0156
 3208UDC     C435281  10.795  10.946  19.376 -0.3511 -0.3541  0.3014
 3208UDC     C535282  10.826  10.915  19.230  0.1334  0.7110 -1.6935
 3208UDC     C635283  10.704  10.967  19.148  0.2339  1.1002 -0.1373
 3208UDC     C735284  10.722  10.986  18.995  0.8480  1.1972  0.5303
 3208UDC     C835285  10.598  10.974  18.910  0.4748 -0.0448 -0.2631
 3208UDC     C935286  10.484  11.074  18.934 -0.1424 -0.8673 -0.6731
 3208UDC    C1035287  10.361  11.046  18.847  0.6369 -0.6618  0.1923
 3208UDC    C1135288  10.385  11.046  18.698 -0.8224 -0.1659  0.5795
 3209UDC     C135289  17.294   4.909   5.113 -0.6266 -0.2255 -0.5289
 3209UDC     C235290  17.218   4.786   5.059 -0.8828 -0.0771  0.3536
 3209UDC     C335291  17.268   4.771   4.919 -0.5069  0.9304  0.0564
 3209UDC     C435292  17.418   4.732   4.914  1.0494  0.7762  0.8116
 3209UDC     C535293  17.462   4.670   4.784 -0.9872 -0.4042 -0.5271
 3209UDC     C635294  17.479   4.778   4.673  0.7699  0.3032 -0.8041
 3209UDC     C735295  17.585   4.893   4.695  0.1096  0.1716  0.1245
 3209UDC     C835296  17.601   4.966   4.562 -0.0329  1.0035 -0.0008
 3209UDC     C935297  17.743   5.012   4.521  0.2735  0.1340 -0.0120
 3209UDC    C1035298  17.832   4.884   4.504  0.6624  0.4915  0.0197
 3209UDC    C1135299  17.818   4.842   4.358  0.5405 -1.0537 -0.0379
 3210UDC     C135300   7.949  13.099  13.401  0.1032 -1.0309  0.8100
 3210UDC     C235301   7.797  13.066  13.416 -0.4831 -0.4707 -0.2920
 3210UDC     C335302   7.731  13.101  13.552  0.0786  0.2254 -0.7572
 3210UDC     C435303   7.755  13.254  13.572  0.6447  0.0458  0.6756
 3210UDC     C535304   7.702  13.305  13.709 -0.3650 -0.0512  0.3361
 3210UDC     C635305   7.551  13.277  13.717 -0.4069 -0.6691 -0.5527
 3210UDC     C735306   7.511  13.376  13.827 -1.1802 -0.3108 -1.5248
 3210UDC     C835307   7.363  13.349  13.866 -0.1956 -0.0915  0.3577
 3210UDC     C935308   7.327  13.216  13.929 -0.9999 -0.2719 -0.3503
 3210UDC    C1035309   7.178  13.200  13.963 -0.8890 -0.9100 -0.4174
 3210UDC    C1135310   7.085  13.293  13.889  0.2423  0.2119 -0.5022
 3211UDC     C135311   0.980   8.222  19.538 -1.0275 -0.3308 -0.4490
 3211UDC     C235312   0.907   8.232  19.666  1.1741 -0.5727 -0.4010
 3211UDC     C335313   0.880   8.091  19.729 -0.2591  0.2411 -0.3211
 3211UDC     C435314   0.817   8.082  19.865  0.8589  0.1312 -0.2084
 3211UDC     C535315   0.889   8.180  19.960 -0.8300 -0.0108  0.0004
 3211UDC     C635316   0.810   8.304  20.004  0.1667  0.0166 -1.3806
 3211UDC     C735317   0.894   8.394  20.097  0.0132  0.1254 -0.0201
 3211UDC     C835318   1.010   8.476  20.036  0.3589 -0.7424  0.7375
 3211UDC     C935319   1.096   8.523  20.149 -0.4838 -0.2549 -0.3222
 3211UDC    C1035320   1.202   8.623  20.093 -0.6227  0.5888 -0.4813
 3211UDC    C1135321   1.214   8.750  20.173  0.9138  0.5045 -0.2048
 3212UDC     C135322  16.135   8.351   6.999  0.0989 -0.3650 -0.2311
 3212UDC     C235323  16.043   8.435   7.085  0.9253 -0.2106 -1.1588
 3212UDC     C335324  16.119   8.576   7.102 -0.6324  0.1242  0.2798
 3212UDC     C435325  16.029   8.688   7.150 -1.3564  0.0637  0.3056
 3212UDC     C535326  15.943   8.626   7.264 -0.3852 -0.6634 -0.3164
 3212UDC     C635327  15.841   8.713   7.334 -0.1903 -0.3571 -0.8547
 3212UDC     C735328  15.760   8.658   7.452  0.2162  0.0821 -0.3634
 3212UDC     C835329  15.830   8.529   7.504  0.5171 -0.9719 -0.7619
 3212UDC     C935330  15.745   8.460   7.609  0.0665 -0.3278  0.5628
 3212UDC    C1035331  15.802   8.316   7.643  0.3490 -0.0304  0.5703
 3212UDC    C1135332  15.786   8.235   7.512 -0.3832  0.8342 -0.9789
 3213UDC     C135333  19.688   8.517   2.921  0.2763 -0.6974 -0.8104
 3213UDC     C235334  19.786   8.532   2.799  0.6455  0.3168 -0.3452
 3213UDC     C335335  19.824   8.391   2.740  0.8903 -0.3303  0.5370
 3213UDC     C435336  19.878   8.389   2.599  0.3796 -0.2359 -0.4212
 3213UDC     C535337  19.942   8.262   2.549 -1.5566  0.5873  0.6443
 3213UDC     C635338  20.007   8.301   2.415 -0.0979 -0.1778  0.6527
 3213UDC     C735339  20.089   8.189   2.351 -0.7781  0.4846  0.3533
 3213UDC     C835340  20.128   8.236   2.207  0.4666  0.2847 -0.1164
 3213UDC     C935341  20.222   8.145   2.127 -0.4354  0.9377  0.5355
 3213UDC    C1035342  20.258   8.215   1.989 -0.5321 -0.8159 -0.1555
 3213UDC    C1135343  20.321   8.108   1.901 -0.2757 -0.2277  0.8121
 3214UDC     C135344   7.354  15.716   5.206  0.9242 -0.3782  1.4228
 3214UDC     C235345   7.284  15.824   5.129 -0.7140 -0.4239  0.0052
 3214UDC     C335346   7.131  15.817   5.136 -1.2535  1.6261  0.2533
 3214UDC     C435347   7.064  15.859   5.005  0.4343 -0.2184  0.2861
 3214UDC     C535348   7.104  16.000   4.964 -0.3900 -0.7497 -0.2104
 3214UDC     C635349   6.994  16.104   4.920 -0.3993  0.6700  1.0533
 3214UDC     C735350   7.015  16.249   4.956 -0.2838  0.7331  0.0027
 3214UDC     C835351   6.887  16.328   4.948 -0.0854 -0.4978 -0.2277
 3214UDC     C935352   6.760  16.299   5.036  0.0773  0.5811  0.2381
 3214UDC    C1035353   6.729  16.425   5.115  0.3585  0.7986 -0.5979
 3214UDC    C1135354   6.604  16.439   5.204  0.6330 -0.8152 -0.4205
 3215UDC     C135355  11.220  19.911   6.381 -0.2329  1.1793  0.2502
 3215UDC     C235356  11.233  19.886   6.532 -0.6110  0.2132 -0.3726
 3215UDC     C335357  11.129  19.802   6.603 -0.3452 -0.7060  0.9422
 3215UDC     C435358  11.160  19.764   6.745 -0.4875 -0.5545 -0.6034
 3215UDC     C535359  11.283  19.677   6.768 -0.5073 -0.1124 -0.1518
 3215UDC     C635360  11.262  19.516   6.744 -0.0315 -0.1792 -0.4910
 3215UDC     C735361  11.401  19.461   6.755 -1.2657  0.7964  0.5772
 3215UDC     C835362  11.481  19.533   6.865  0.0452 -1.2217 -0.4500
 3215UDC     C935363  11.596  19.446   6.915 -1.5368 -0.4777  0.5152
 3215UDC    C1035364  11.544  19.312   6.969  0.3249 -0.4054  0.5470
 3215UDC    C1135365  11.668  19.214   6.986 -0.0722  0.0255  1.2290
 3216UDC     C135366  18.776  16.160  17.227 -1.0026  0.1662  0.5705
 3216UDC     C235367  18.854  16.026  17.190  0.3081 -0.4681 -0.0866
 3216UDC     C335368  18.964  16.044  17.084 -0.0244 -1.2898  0.0897
 3216UDC     C435369  19.063  15.934  17.080  0.6516 -0.1928  0.1452
 3216UDC     C535370  19.115  15.912  16.942 -0.0563  0.1197 -0.5518
 3216UDC     C635371  19.235  15.812  16.929 -0.6203  0.0931  1.2875
 3216UDC     C735372  19.342  15.817  16.815  0.0669  0.8193 -0.4694
 3216UDC     C835373  19.442  15.708  16.843  1.3247 -1.1760 -1.2790
 3216UDC     C935374  19.394  15.559  16.845  2.0536 -0.9719 -1.6320
 3216UDC    C1035375  19.396  15.508  16.703  0.8915  0.2894  0.6570
 3216UDC    C1135376  19.338  15.368  16.692  0.4479 -0.2668 -0.5069
 3217UDC     C135377   7.694   1.811  18.479 -0.8632 -0.6918 -0.4603
 3217UDC     C235378   7.801   1.777  18.371 -0.4563  0.7006 -0.5007
 3217UDC     C335379   7.837   1.624  18.361 -0.0375 -0.1901  0.1552
 3217UDC     C435380   7.721   1.525  18.339  0.2484 -0.1435 -0.0385
 3217UDC     C535381   7.668   1.510  18.196 -0.5345 -0.4706 -0.3748
 3217UDC     C635382   7.581   1.626  18.140 -0.4689  0.5993  1.1014
 3217UDC     C735383   7.511   1.570  18.012 -0.5056  0.7645  0.8326
 3217UDC     C835384   7.606   1.559  17.882  0.1924  0.6305  0.0266
 3217UDC     C935385   7.546   1.461  17.783 -0.5449 -0.2173  0.8734
 3217UDC    C1035386   7.589   1.497  17.639  0.3060 -0.0935 -0.0312
 3217UDC    C1135387   7.732   1.470  17.601 -1.4705 -0.3063 -0.0054
 3218UDC     C135388  18.732  12.430   2.230 -0.0128  0.5168  0.9449
 3218UDC     C235389  18.649  12.360   2.345 -0.4026 -0.1852 -0.4139
 3218UDC     C335390  18.515  12.428   2.353  0.6133 -0.2491  0.2759
 3218UDC     C435391  18.431  12.409   2.226 -0.3495  1.0678  0.6891
 3218UDC     C535392  18.280  12.378   2.231 -0.0046  0.6794 -0.7544
 3218UDC     C635393  18.223  12.369   2.096  0.0796  0.5492  1.2107
 3218UDC     C735394  18.076  12.325   2.070  0.8595  0.6332 -0.4410
 3218UDC     C835395  18.036  12.231   2.186 -0.1529 -0.9650  0.1854
 3218UDC     C935396  17.970  12.102   2.145 -0.6421  0.1419  0.7178
 3218UDC    C1035397  17.895  12.020   2.239 -0.2807 -0.6102  0.8017
 3218UDC    C1135398  17.979  12.015   2.371  1.3068  1.3466 -0.1996
 3219UDC     C135399   2.436   1.239   3.664  0.9066  0.5634  0.8555
 3219UDC     C235400   2.552   1.150   3.717  0.1071  0.3608 -0.4901
 3219UDC     C335401   2.693   1.188   3.675  0.1636 -0.0053  0.1557
 3219UDC     C435402   2.809   1.089   3.720 -0.2256 -0.0442  1.1753
 3219UDC     C535403   2.942   1.154   3.672  0.6733  0.3778 -0.5256
 3219UDC     C635404   2.988   1.277   3.748 -0.4755  0.0535  0.8269
 3219UDC     C735405   3.100   1.355   3.683 -0.0702 -0.0684  0.3935
 3219UDC     C835406   3.039   1.421   3.560  1.0756  0.3538  0.1274
 3219UDC     C935407   3.053   1.342   3.419 -0.6875 -0.3501 -1.1034
 3219UDC    C1035408   3.150   1.406   3.322  0.4035 -0.5695 -0.3837
 3219UDC    C1135409   3.281   1.445   3.385  0.0413 -0.8365  0.1234
 3220UDC     C135410  10.951  11.417  15.133 -0.7791  0.7128  1.0674
 3220UDC     C235411  10.894  11.509  15.245 -0.8503  0.7743  0.3482
 3220UDC     C335412  10.952  11.646  15.276 -1.3061  0.2380 -0.0678
 3220UDC     C435413  10.963  11.738  15.147  0.0948  0.5044 -0.5850
 3220UDC     C535414  11.095  11.822  15.124 -0.0722 -0.8080  1.0574
 3220UDC     C635415  11.108  11.901  14.986 -0.2028 -0.2650  1.0520
 3220UDC     C735416  11.050  12.048  15.000  0.4894 -0.1649 -0.0374
 3220UDC     C835417  11.071  12.146  14.877  0.6487  0.4210 -0.2673
 3220UDC     C935418  10.943  12.223  14.846  0.2128 -0.0346  0.1797
 3220UDC    C1035419  10.963  12.341  14.751 -0.0641  0.1061  0.3453
 3220UDC    C1135420  11.087  12.414  14.809 -1.1973 -0.7028 -0.7392
 3221UDC     C135421  16.493   5.761   4.423 -0.6240 -0.4982 -0.2024
 3221UDC     C235422  16.388   5.860   4.469  0.4033 -0.0798  0.4443
 3221UDC     C335423  16.299   5.807   4.585  1.1707 -0.4987 -0.1609
 3221UDC     C435424  16.178   5.901   4.589  1.3990 -0.4408  0.3362
 3221UDC     C535425  16.208   6.047   4.637  0.2879  0.2715  1.0902
 3221UDC     C635426  16.092   6.146   4.662  0.6596  0.7578 -1.5824
 3221UDC     C735427  16.142   6.288   4.680  0.6543 -0.2660  0.5467
 3221UDC     C835428  16.190   6.327   4.544 -0.4637 -0.7732  0.1203
 3221UDC     C935429  16.267   6.461   4.535 -1.1928  0.1691  0.4240
 3221UDC    C1035430  16.260   6.490   4.385  0.8079  0.1987  0.6362
 3221UDC    C1135431  16.215   6.357   4.320  0.9078  0.4467 -0.4151
 3222UDC     C135432   9.143  15.655   0.180  0.2114 -0.0842  0.0620
 3222UDC     C235433   9.289  15.609   0.211 -0.9198  1.3062  0.2925
 3222UDC     C335434   9.291  15.455   0.205  0.1336 -1.0641  0.7284
 3222UDC     C435435   9.392  15.382   0.290 -0.6986 -0.3203  1.3756
 3222UDC     C535436   9.392  15.230   0.275  0.2478 -0.6504 -0.4496
 3222UDC     C635437   9.501  15.207   0.172  0.2748 -0.4646  1.0589
 3222UDC     C735438   9.639  15.273   0.203  0.8353  0.0884  0.1761
 3222UDC     C835439   9.714  15.312   0.070  0.2038  0.7510  0.0170
 3222UDC     C935440   9.781  15.187   0.028  1.1192  0.2443  0.1626
 3222UDC    C1035441   9.914  15.206  -0.046 -0.4166 -0.2710  0.0467
 3222UDC    C1135442  10.023  15.271   0.046  0.7725 -1.2902  0.1107
 3223UDC     C135443  10.112   7.066  15.433 -0.1015  0.7782  0.5596
 3223UDC     C235444  10.034   7.186  15.502 -0.1936 -0.0529 -0.1083
 3223UDC     C335445  10.129   7.258  15.592  0.8457 -0.0033  0.7168
 3223UDC     C435446  10.169   7.166  15.709  1.0513 -0.2293 -0.6580
 3223UDC     C535447  10.279   7.216  15.813 -0.9521  1.0214 -0.7028
 3223UDC     C635448  10.308   7.143  15.944  0.9567  1.2146 -0.7119
 3223UDC     C735449  10.412   7.188  16.056  0.5944  0.6009 -0.5184
 3223UDC     C835450  10.444   7.081  16.153  0.1062  0.1741  0.4918
 3223UDC     C935451  10.488   6.936  16.097  0.7765 -0.2932 -0.6863
 3223UDC    C1035452  10.512   6.806  16.185  1.5272  0.5500 -0.8002
 3223UDC    C1135453  10.634   6.805  16.275  0.2380  0.0162 -0.3115
 3224UDC     C135454   2.805   0.978   9.047 -0.1015  0.7722  0.1160
 3224UDC     C235455   2.915   1.079   9.070  1.2881 -0.1476  0.5469
 3224UDC     C335456   2.908   1.215   8.990 -0.6245 -0.9185  0.0352
 3224UDC     C435457   3.041   1.288   9.010  0.1998  0.5522  0.2672
 3224UDC     C535458   3.065   1.302   9.162  0.4088 -0.0791 -1.0935
 3224UDC     C635459   2.950   1.393   9.205  0.3026  0.0435  0.0587
 3224UDC     C735460   2.994   1.537   9.195  0.1698 -0.2832  0.5898
 3224UDC     C835461   2.891   1.634   9.254 -0.1216 -1.0209  0.4522
 3224UDC     C935462   2.931   1.777   9.289  0.3102  0.8695 -2.2659
 3224UDC    C1035463   2.823   1.886   9.322 -0.1481  0.3738  0.2065
 3224UDC    C1135464   2.713   1.897   9.207 -0.3477  0.3071  0.6749
 3225UDC     C135465   0.678  15.412   1.677 -0.3099  0.8155 -0.3540
 3225UDC     C235466   0.557  15.406   1.585 -0.6726  0.2989  0.8984
 3225UDC     C335467   0.508  15.551   1.542  0.7655  0.8700  0.2842
 3225UDC     C435468   0.387  15.545   1.449  0.3727 -0.6824 -0.3758
 3225UDC     C535469   0.401  15.523   1.294 -0.4087  0.4747 -0.5969
 3225UDC     C635470   0.265  15.505   1.230 -0.3843  0.1533 -0.4500
 3225UDC     C735471   0.261  15.476   1.083  1.1602 -0.2488  1.3904
 3225UDC     C835472   0.310  15.593   0.997  0.2992  0.1827  0.7283
 3225UDC     C935473   0.399  15.548   0.879 -0.1422 -0.4677  1.5671
 3225UDC    C1035474   0.443  15.668   0.788  0.3458  0.6658 -0.1838
 3225UDC    C1135475   0.335  15.715   0.681 -0.0270  0.5950 -0.6677
 3226UDC     C135476   9.203   1.502   1.218  1.4315 -1.4636 -1.0173
 3226UDC     C235477   9.250   1.647   1.264 -0.4244 -0.1354  0.0753
 3226UDC     C335478   9.380   1.649   1.356  0.5812 -0.4666 -0.0606
 3226UDC     C435479   9.516   1.621   1.302  0.1985  1.4716 -0.7040
 3226UDC     C535480   9.623   1.718   1.339 -0.1752 -1.0056 -0.3901
 3226UDC     C635481   9.763   1.680   1.295 -0.2495  0.1838  0.6396
 3226UDC     C735482   9.851   1.808   1.309  0.0769  0.9159  0.1370
 3226UDC     C835483   9.919   1.837   1.175  0.8568 -0.5830  0.1303
 3226UDC     C935484  10.033   1.939   1.176 -0.0988  1.1564 -1.0359
 3226UDC    C1035485  10.073   2.022   1.046  0.7269 -0.2885 -1.2554
 3226UDC    C1135486   9.957   2.110   0.985  0.1082  0.0101 -0.1528
 3227UDC     C135487  17.125   6.900   9.841 -0.0127  1.0021  0.1031
 3227UDC     C235488  17.017   6.832   9.760 -0.2807  0.8633 -0.5340
 3227UDC     C335489  16.999   6.851   9.614 -1.2252 -0.5567  0.9329
 3227UDC     C435490  16.867   6.782   9.582  1.3187  0.5109 -2.2246
 3227UDC     C535491  16.848   6.791   9.437  1.3317 -0.0463  0.5533
 3227UDC     C635492  16.919   6.693   9.341 -0.0108  0.0847 -0.5210
 3227UDC     C735493  16.944   6.733   9.192  0.9410  0.1794 -0.6093
 3227UDC     C835494  16.946   6.888   9.182 -0.2709  0.8680 -1.1215
 3227UDC     C935495  16.956   6.956   9.043  0.1397 -0.5306 -0.3894
 3227UDC    C1035496  17.083   6.935   8.946  0.6285  0.2287 -0.2301
 3227UDC    C1135497  17.085   6.812   8.854  0.2894  0.3327 -0.7931
 3228UDC     C135498  11.572   5.631   4.873  0.4763 -0.8071 -0.2951
 3228UDC     C235499  11.706   5.555   4.869 -0.5265  0.0540  0.3728
 3228UDC     C335500  11.765   5.488   4.992  1.5310 -0.5524  0.0124
 3228UDC     C435501  11.892   5.403   4.950  0.6191  0.0153 -0.5980
 3228UDC     C535502  11.881   5.276   4.868  0.3442  0.1045  0.3383
 3228UDC     C635503  12.016   5.265   4.787  0.2402 -1.1976  0.6357
 3228UDC     C735504  12.026   5.154   4.675 -0.2832 -0.2837 -0.8161
 3228UDC     C835505  12.167   5.160   4.602 -0.4853 -0.1310  0.1499
 3228UDC     C935506  12.275   5.072   4.675  0.4134 -0.1004 -0.0866
 3228UDC    C1035507  12.398   5.020   4.590  1.1074 -0.2501 -0.3321
 3228UDC    C1135508  12.452   4.884   4.647  0.2719  0.1506 -0.6843
 3229UDC     C135509  14.759   8.402   5.154 -0.3097  0.4087  0.3784
 3229UDC     C235510  14.692   8.262   5.146  0.0385  0.3946  0.2940
 3229UDC     C335511  14.729   8.147   5.244 -0.2294 -0.7035 -0.6479
 3229UDC     C435512  14.615   8.046   5.237 -0.6245  0.9489  0.0456
 3229UDC     C535513  14.648   7.933   5.136  0.3958  1.0394 -0.0732
 3229UDC     C635514  14.526   7.849   5.095 -0.5951 -0.2968 -0.0745
 3229UDC     C735515  14.558   7.767   4.969  0.1478 -0.0874 -0.3445
 3229UDC     C835516  14.483   7.627   4.959 -0.9129 -0.1601 -0.4612
 3229UDC     C935517  14.332   7.655   4.927 -1.1276 -0.8024  0.6453
 3229UDC    C1035518  14.241   7.663   5.049  0.6435 -0.3216  0.5934
 3229UDC    C1135519  14.103   7.707   4.995 -0.1443  0.7066  0.4710
 3230UDC     C135520  16.172   6.415  11.220  0.4857 -0.8812 -0.6624
 3230UDC     C235521  16.279   6.461  11.127 -0.8954 -0.1850 -0.5941
 3230UDC     C335522  16.377   6.349  11.094 -0.4004 -0.1988  0.6350
 3230UDC     C435523  16.489   6.305  11.192  0.5586 -0.6776  0.3410
 3230UDC     C535524  16.506   6.156  11.194 -0.0368 -0.4882 -0.0394
 3230UDC     C635525  16.636   6.092  11.251  0.8806  0.3050 -0.0850
 3230UDC     C735526  16.636   6.042  11.395 -0.0295  0.8250  0.0039
 3230UDC     C835527  16.577   6.139  11.497  0.4293 -0.7935 -0.8535
 3230UDC     C935528  16.609   6.097  11.641 -0.4793  0.0601  0.1492
 3230UDC    C1035529  16.516   6.185  11.731 -0.2184  0.9898 -0.0227
 3230UDC    C1135530  16.393   6.248  11.666 -0.7245  0.1308  0.2747
 3231UDC     C135531   8.506   6.268  11.430 -0.0677 -0.0960 -0.0977
 3231UDC     C235532   8.411   6.306  11.313  0.5959  0.8578  0.3266
 3231UDC     C335533   8.358   6.455  11.297 -0.7856 -0.1927 -0.2627
 3231UDC     C435534   8.361   6.511  11.153 -0.0442  0.4882  0.3390
 3231UDC     C535535   8.342   6.666  11.155  0.2631 -0.8213  0.6400
 3231UDC     C635536   8.458   6.758  11.200  0.2556  0.7292  0.2693
 3231UDC     C735537   8.573   6.756  11.094 -0.5583 -0.3238 -0.6191
 3231UDC     C835538   8.682   6.839  11.161 -0.0547  0.3537  0.2863
 3231UDC     C935539   8.811   6.856  11.066  0.0241 -1.5456  0.3700
 3231UDC    C1035540   8.923   6.892  11.170  0.2106  0.1624 -0.3509
 3231UDC    C1135541   8.975   6.770  11.247 -0.2509  0.0511 -0.5664
 3232UDC     C135542   7.227  13.280   8.197 -0.2442  1.2708 -0.7195
 3232UDC     C235543   7.091  13.358   8.203  0.5476 -0.7500 -0.6408
 3232UDC     C335544   7.084  13.442   8.330 -0.2821  0.4017 -0.6308
 3232UDC     C435545   7.071  13.364   8.464 -0.7241 -0.6904  0.5543
 3232UDC     C535546   6.946  13.282   8.455 -0.8361  0.5937 -0.2053
 3232UDC     C635547   6.900  13.215   8.586  0.9618  0.5836 -0.1202
 3232UDC     C735548   6.748  13.182   8.596 -0.7558 -0.0699  0.0749
 3232UDC     C835549   6.683  13.166   8.737 -0.9179  0.4993 -0.7056
 3232UDC     C935550   6.531  13.132   8.754  0.7218 -0.1535  1.2551
 3232UDC    C1035551   6.469  13.132   8.894 -0.5561 -0.2151  0.2000
 3232UDC    C1135552   6.513  13.254   8.979  0.6379 -0.5457  0.4192
 3233UDC     C135553   6.776   0.847  17.690 -0.7999  0.2487 -0.4376
 3233UDC     C235554   6.646   0.828  17.757  0.5022  0.3469  0.2162
 3233UDC     C335555   6.524   0.783  17.678  0.2791 -1.1554  0.8813
 3233UDC     C435556   6.540   0.668  17.585  0.4068 -0.2144 -0.8517
 3233UDC     C535557   6.591   0.532  17.636  0.0956  0.2300 -0.0539
 3233UDC     C635558   6.621   0.449  17.511  0.8383 -0.2960  0.5267
 3233UDC     C735559   6.503   0.472  17.407 -0.3244 -1.2262 -0.6932
 3233UDC     C835560   6.511   0.377  17.284  0.1529  0.1799  0.2331
 3233UDC     C935561   6.375   0.366  17.206  0.8124 -0.7284  1.6222
 3233UDC    C1035562   6.398   0.304  17.066  1.2817 -0.5122 -0.4200
 3233UDC    C1135563   6.463   0.391  16.956  0.0310  0.6578  0.0472
 3234UDC     C135564  18.033  13.809   1.396  0.4304 -0.3751  0.4771
 3234UDC     C235565  17.928  13.917   1.427 -0.3096  0.4403  0.0576
 3234UDC     C335566  17.866  13.924   1.566 -0.4395 -0.3924  0.1601
 3234UDC     C435567  17.795  14.052   1.618  0.1221 -0.2301  0.4369
 3234UDC     C535568  17.713  14.138   1.519  1.3190 -1.0406  0.2320
 3234UDC     C635569  17.562  14.093   1.522  0.9781 -0.2722 -0.1726
 3234UDC     C735570  17.514  13.958   1.481  0.9748  0.4537 -0.2585
 3234UDC     C835571  17.357  13.955   1.491 -0.5250 -0.1919 -0.0937
 3234UDC     C935572  17.309  13.807   1.513 -0.0765  0.4236 -0.0241
 3234UDC    C1035573  17.369  13.700   1.412  0.3761 -0.9054 -0.1884
 3234UDC    C1135574  17.304  13.562   1.400 -0.1153 -1.1037 -0.9940
 3235UDC     C135575  19.887   4.956  14.251  0.1096 -0.3700  0.6496
 3235UDC     C235576  19.790   4.915  14.368  0.4243 -0.2369  1.8175
 3235UDC     C335577  19.789   5.006  14.489 -0.0740  0.3158 -0.2099
 3235UDC     C435578  19.798   5.148  14.432  1.2339 -0.7105 -0.1932
 3235UDC     C535579  19.773   5.271  14.532 -1.4112  0.9973  0.2019
 3235UDC     C635580  19.660   5.252  14.637 -0.2612  0.0194 -0.1212
 3235UDC     C735581  19.557   5.366  14.650  0.2499 -0.4513  1.1439
 3235UDC     C835582  19.450   5.351  14.763 -0.1832 -0.5419 -0.6405
 3235UDC     C935583  19.312   5.295  14.724 -0.0123 -0.3211  0.5137
 3235UDC    C1035584  19.231   5.371  14.613 -0.2946  0.1994 -0.4813
 3235UDC    C1135585  19.104   5.304  14.575 -0.2868  0.9219  0.6733
 3236UDC     C135586  14.119  11.445  11.998 -0.1118  0.2534 -0.3807
 3236UDC     C235587  13.964  11.469  12.019  0.0804 -1.0092  0.4337
 3236UDC     C335588  13.903  11.582  12.103 -1.0325  0.9986 -0.5057
 3236UDC     C435589  13.983  11.724  12.094 -0.7888  0.5967  0.2282
 3236UDC     C535590  13.969  11.818  12.218  0.1561  0.0047  0.5568
 3236UDC     C635591  14.019  11.958  12.196 -0.6941 -0.0506 -0.3747
 3236UDC     C735592  14.017  12.067  12.312 -0.3471  0.5801 -2.3122
 3236UDC     C835593  13.908  12.165  12.356  0.4181 -0.0764  1.3647
 3236UDC     C935594  13.943  12.272  12.459 -0.8487 -0.0569  0.8130
 3236UDC    C1035595  13.848  12.389  12.492  0.1555 -0.0401  1.3122
 3236UDC    C1135596  13.905  12.492  12.588  0.4774 -0.0652 -0.7001
 3237UDC     C135597  18.312   5.037   8.966  0.0244 -1.2156  0.3090
 3237UDC     C235598  18.196   4.999   8.875  1.0854 -0.2820 -0.0226
 3237UDC     C335599  18.103   5.108   8.828 -0.6382 -0.7618  0.7512
 3237UDC     C435600  18.189   5.198   8.737  0.2195  0.6039 -0.0118
 3237UDC     C535601  18.095   5.236   8.625 -0.1678 -0.8102 -0.5560
 3237UDC     C635602  17.977   5.326   8.664  0.4574 -0.6851 -1.8623
 3237UDC     C735603  17.836   5.305   8.598 -0.3233 -1.5007  0.0667
 3237UDC     C835604  17.795   5.419   8.502 -1.1662  0.1539  1.0960
 3237UDC     C935605  17.671   5.413   8.411  0.1971  0.1158 -0.4039
 3237UDC    C1035606  17.655   5.541   8.332  1.1540  1.2329  0.0369
 3237UDC    C1135607  17.798   5.579   8.281 -0.0237  0.5938  0.0778
 3238UDC     C135608   4.916  10.468  15.824  0.6291  0.5352 -0.4622
 3238UDC     C235609   5.055  10.403  15.806 -0.2914 -0.2692  1.0227
 3238UDC     C335610   5.146  10.489  15.711 -0.8510  0.1629 -0.7992
 3238UDC     C435611   5.299  10.460  15.710  1.0890  1.4448 -0.1747
 3238UDC     C535612   5.346  10.428  15.851 -1.4074  0.5863  0.7758
 3238UDC     C635613   5.374  10.283  15.895 -0.5371  1.3323 -0.1928
 3238UDC     C735614   5.451  10.283  16.028  0.5075  0.6527  0.6347
 3238UDC     C835615   5.481  10.149  16.094  0.9882  0.2210  0.6522
 3238UDC     C935616   5.604  10.140  16.195  0.2764  0.3476 -1.1155
 3238UDC    C1035617   5.607  10.040  16.312 -0.5133  0.0307 -0.9240
 3238UDC    C1135618   5.741  10.028  16.379 -0.2101  0.2620  0.4636
 3239UDC     C135619   5.444  19.539   6.652  0.7721 -0.0137  0.3017
 3239UDC     C235620   5.345  19.558   6.529  0.2297  0.3966 -0.4350
 3239UDC     C335621   5.216  19.491   6.577  0.5191  0.2979 -0.7145
 3239UDC     C435622   5.102  19.472   6.478 -0.4478  0.1905  0.0176
 3239UDC     C535623   4.961  19.435   6.535 -0.1271 -0.2150  0.7044
 3239UDC     C635624   4.861  19.428   6.410  0.1329  0.3388 -0.8891
 3239UDC     C735625   4.713  19.406   6.466 -0.5467  0.4460  0.4321
 3239UDC     C835626   4.610  19.480   6.387 -0.3195  0.3671  1.1483
 3239UDC     C935627   4.477  19.405   6.391 -0.0169 -1.0405  0.1687
 3239UDC    C1035628   4.382  19.481   6.291 -1.1707  0.0107  0.6823
 3239UDC    C1135629   4.255  19.404   6.263  0.7544  0.7004  1.0789
 3240UDC     C135630  10.471   7.593  12.017 -0.1037  0.9922 -0.2712
 3240UDC     C235631  10.463   7.708  11.910  0.1881  0.3041  0.3373
 3240UDC     C335632  10.325   7.769  11.912 -0.8344  0.0869  0.1306
 3240UDC     C435633  10.304   7.866  11.796 -1.5103  0.7687  0.8622
 3240UDC     C535634  10.175   7.837  11.717 -0.1352  0.5890 -1.2538
 3240UDC     C635635  10.047   7.812  11.801  0.3851 -0.2157 -0.5490
 3240UDC     C735636   9.927   7.797  11.703  0.4568 -0.5570 -0.0473
 3240UDC     C835637   9.787   7.805  11.767 -0.9587 -0.0118  0.6860
 3240UDC     C935638   9.748   7.948  11.814 -0.6974 -0.0469 -0.4627
 3240UDC    C1035639   9.752   8.062  11.721  0.5004 -0.5990 -0.0292
 3240UDC    C1135640   9.786   8.205  11.765 -0.3478  0.6201  0.2714
 3241UDC     C135641  19.680   3.638   0.332 -0.9886  0.0893 -0.4226
 3241UDC     C235642  19.533   3.620   0.301  0.3443 -1.1804  0.3858
 3241UDC     C335643  19.452   3.566   0.424  0.1004 -0.3277 -0.1672
 3241UDC     C435644  19.452   3.668   0.537 -0.9825 -0.6971  0.2408
 3241UDC     C535645  19.362   3.603   0.644 -0.7226 -0.3892 -0.2969
 3241UDC     C635646  19.238   3.551   0.572 -0.2681 -0.2042  1.6291
 3241UDC     C735647  19.113   3.556   0.655  0.2549  0.8599 -0.1114
 3241UDC     C835648  18.981   3.508   0.583 -0.6555  0.7158 -0.5979
 3241UDC     C935649  18.853   3.519   0.672 -1.0777  0.7561 -0.7282
 3241UDC    C1035650  18.725   3.486   0.600  0.0092 -0.4304 -0.9672
 3241UDC    C1135651  18.672   3.571   0.475 -0.6311  0.9779 -0.2613
 3242UDC     C135652  16.444  18.284  14.837 -0.9470  0.4826 -0.9140
 3242UDC     C235653  16.363  18.329  14.961 -0.0495 -0.0975  0.4195
 3242UDC     C335654  16.461  18.395  15.060 -0.5176 -0.1193 -0.3957
 3242UDC     C435655  16.408  18.372  15.202  0.9944 -0.3482  0.1873
 3242UDC     C535656  16.488  18.446  15.314  0.0086  0.0545  0.0733
 3242UDC     C635657  16.484  18.599  15.285  0.2320  0.0975 -1.1953
 3242UDC     C735658  16.547  18.683  15.399  0.8382  0.0682  0.1164
 3242UDC     C835659  16.681  18.635  15.441 -0.4529 -0.4790  0.4238
 3242UDC     C935660  16.742  18.714  15.568 -0.1758  0.7431  0.7651
 3242UDC    C1035661  16.887  18.672  15.604 -0.8521  0.3190 -0.9873
 3242UDC    C1135662  16.997  18.762  15.540  0.0798  0.7296  0.8710
 3243UDC     C135663   0.859   2.387   9.985 -0.2845  1.0946  0.1006
 3243UDC     C235664   0.923   2.378   9.841 -0.2435 -0.3860  1.1058
 3243UDC     C335665   0.925   2.509   9.752 -0.3429 -0.4349 -0.5028
 3243UDC     C435666   1.031   2.600   9.807 -0.6345 -0.8963  1.0739
 3243UDC     C535667   1.008   2.748   9.840  1.0424 -1.6348  0.0765
 3243UDC     C635668   1.135   2.832   9.866 -1.1089 -0.8623  0.1893
 3243UDC     C735669   1.106   2.973   9.929 -0.2335 -0.5829  1.5609
 3243UDC     C835670   1.232   3.068   9.946 -0.5552  0.0398  0.2052
 3243UDC     C935671   1.191   3.214   9.939  1.4223 -1.1056 -0.5559
 3243UDC    C1035672   1.320   3.302   9.966 -0.3609 -0.4494 -0.1473
 3243UDC    C1135673   1.402   3.290   9.837  0.3048 -0.3725  0.1320
 3244UDC     C135674   9.748  16.492  13.164  0.4214 -0.6402 -1.3338
 3244UDC     C235675   9.745  16.570  13.031  0.1088 -0.5424  0.9981
 3244UDC     C335676   9.724  16.476  12.916 -0.3396  0.3586  0.1296
 3244UDC     C435677   9.683  16.517  12.770 -0.2386  0.4292  0.4237
 3244UDC     C535678   9.670  16.413  12.650 -0.7665 -0.2694  0.2164
 3244UDC     C635679   9.809  16.359  12.621 -0.1737 -0.0903  0.3443
 3244UDC     C735680   9.829  16.287  12.483 -0.1026  0.3141 -0.0887
 3244UDC     C835681   9.699  16.217  12.447  0.2940  0.3701 -0.5658
 3244UDC     C935682   9.716  16.097  12.347 -0.4912 -0.0635  0.3362
 3244UDC    C1035683   9.758  15.952  12.382 -0.5497 -0.8874 -0.5495
 3244UDC    C1135684   9.815  15.889  12.257  0.6491  1.0212  1.2203
 3245UDC     C135685  15.020   4.363   3.464 -0.1604 -1.3067 -0.7647
 3245UDC     C235686  15.145   4.342   3.371 -0.6616 -0.2569  0.0313
 3245UDC     C335687  15.284   4.340   3.454  0.7837  0.6231  0.3786
 3245UDC     C435688  15.399   4.336   3.353 -0.0786  0.2265  0.5440
 3245UDC     C535689  15.541   4.334   3.407 -0.0661  0.7163  0.3580
 3245UDC     C635690  15.647   4.336   3.293  0.0004 -0.7858 -0.7268
 3245UDC     C735691  15.779   4.329   3.351  0.0310  0.7190  0.0327
 3245UDC     C835692  15.836   4.451   3.419  0.2443  0.2788 -0.3980
 3245UDC     C935693  15.957   4.460   3.517 -0.3496  0.2800 -0.3649
 3245UDC    C1035694  15.939   4.405   3.660  0.1975 -1.1140  0.1570
 3245UDC    C1135695  16.067   4.403   3.746  0.1057  0.4955  1.3658
 3246UDC     C135696   2.905   9.220   4.122 -0.2406 -0.2101  0.3768
 3246UDC     C235697   2.831   9.287   4.006  0.8458  0.0117 -0.4749
 3246UDC     C335698   2.696   9.227   3.990  0.8259 -0.2368 -0.6601
 3246UDC     C435699   2.628   9.246   3.856  0.2093 -0.0984  0.1517
 3246UDC     C535700   2.515   9.148   3.804 -0.4292  0.2204 -0.5061
 3246UDC     C635701   2.426   9.072   3.910 -1.2570  0.0940 -0.3571
 3246UDC     C735702   2.379   8.949   3.834 -0.0677 -0.2531 -0.4442
 3246UDC     C835703   2.292   8.840   3.909 -0.4779 -0.8707  0.6688
 3246UDC     C935704   2.237   8.722   3.828 -0.0721 -0.7219  1.1326
 3246UDC    C1035705   2.172   8.618   3.921 -0.5740  0.3176 -1.1943
 3246UDC    C1135706   2.190   8.468   3.877  0.5837 -1.0274 -0.5674
 3247UDC     C135707   0.085   3.500  18.122  0.4774  0.3122  0.1593
 3247UDC     C235708   0.014   3.623  18.184 -0.3857 -0.3309  0.1258
 3247UDC     C335709  -0.032   3.572  18.321  0.1645 -0.8097  0.1067
 3247UDC     C435710  -0.127   3.655  18.410 -1.9835  0.1098 -0.4791
 3247UDC     C535711  -0.195   3.562  18.515 -0.1238 -0.8673 -0.1170
 3247UDC     C635712  -0.099   3.474  18.599 -0.8023 -1.5142  0.2774
 3247UDC     C735713  -0.173   3.390  18.708 -0.1925  0.0894  0.4914
 3247UDC     C835714  -0.082   3.317  18.806  0.2097  0.7095  0.0006
 3247UDC     C935715   0.049   3.386  18.850  0.7562 -0.2972  0.1958
 3247UDC    C1035716   0.133   3.287  18.931 -0.3480  0.5958 -0.4094
 3247UDC    C1135717   0.160   3.326  19.081  0.4806  0.0265 -0.9789
 3248UDC     C135718  14.749   4.545   9.939 -0.3467 -0.4757 -0.6116
 3248UDC     C235719  14.850   4.446  10.014 -0.2133 -0.2985  1.4441
 3248UDC     C335720  14.980   4.419   9.934  0.3383  0.9725  0.3518
 3248UDC     C435721  14.941   4.353   9.800 -1.0227  0.7486 -0.3856
 3248UDC     C535722  15.060   4.312   9.704  0.9288  0.3891  0.1981
 3248UDC     C635723  15.016   4.206   9.598 -0.0090 -0.1990 -0.8114
 3248UDC     C735724  14.903   4.120   9.651  0.8218 -0.0611  0.4752
 3248UDC     C835725  14.952   3.993   9.728 -0.9424  0.7105 -0.2631
 3248UDC     C935726  14.821   3.914   9.723 -1.1248  0.1660 -1.0208
 3248UDC    C1035727  14.764   3.885   9.591 -0.9236 -0.7927  1.2418
 3248UDC    C1135728  14.644   3.806   9.564 -0.7315  0.4231 -0.0412
 3249UDC     C135729   8.299  14.790  14.889  0.0818 -0.7797  0.1333
 3249UDC     C235730   8.331  14.798  15.039  0.3055 -0.7133  0.0588
 3249UDC     C335731   8.209  14.867  15.115  0.4693  0.5649  0.7553
 3249UDC     C435732   8.059  14.810  15.095  0.6511 -0.7705 -1.1277
 3249UDC     C535733   7.955  14.930  15.135 -1.1263  0.5221 -0.5295
 3249UDC     C635734   7.810  14.885  15.123 -0.1209  0.1704 -0.7724
 3249UDC     C735735   7.699  14.995  15.126 -0.4543 -0.5146  0.4769
 3249UDC     C835736   7.704  15.074  14.993 -0.4035 -0.4424 -0.1839
 3249UDC     C935737   7.576  15.132  14.935  0.5567 -0.0097 -0.6773
 3249UDC    C1035738   7.458  15.046  14.986 -0.3449  0.3791 -0.0470
 3249UDC    C1135739   7.340  15.048  14.889  0.0424  0.1574 -0.9663
 3250UDC     C135740   5.971   5.122   9.141 -0.6427  0.4625  0.1638
 3250UDC     C235741   6.023   4.997   9.061  0.7172 -0.7240  0.1993
 3250UDC     C335742   6.142   5.044   8.983 -0.4035  0.4556 -1.0252
 3250UDC     C435743   6.169   4.937   8.878  0.0021  0.3182  0.1167
 3250UDC     C535744   6.287   4.943   8.788 -0.5615 -0.5198 -0.6110
 3250UDC     C635745   6.328   4.814   8.713  0.3573 -0.5638 -0.4824
 3250UDC     C735746   6.429   4.816   8.597 -0.8354  0.3249 -0.0551
 3250UDC     C835747   6.556   4.905   8.623  0.6735 -0.5684 -0.4735
 3250UDC     C935748   6.642   4.901   8.493 -0.3073  0.3843 -0.3426
 3250UDC    C1035749   6.772   4.972   8.530  0.6287  0.2727 -1.0966
 3250UDC    C1135750   6.746   5.129   8.533  0.5245  0.5700  0.1679
 3251UDC     C135751   0.225   7.897   4.340  0.1897 -1.0788  0.5942
 3251UDC     C235752   0.128   7.804   4.416  0.9773  0.3245  0.0262
 3251UDC     C335753   0.193   7.667   4.401 -0.3269 -0.0196  0.1325
 3251UDC     C435754   0.113   7.533   4.413  0.6984 -0.0288 -0.3805
 3251UDC     C535755   0.169   7.429   4.511 -0.0638 -0.6566 -0.2447
 3251UDC     C635756   0.213   7.501   4.644 -0.9181 -0.4721  0.2752
 3251UDC     C735757   0.156   7.409   4.763 -0.3910 -0.0568 -0.7697
 3251UDC     C835758   0.193   7.459   4.904 -1.0975 -0.2124  0.0042
 3251UDC     C935759   0.134   7.385   5.021  0.9279 -0.6953 -0.2947
 3251UDC    C1035760  -0.023   7.362   5.013 -0.5731 -0.7518 -0.3411
 3251UDC    C1135761  -0.065   7.321   5.159  0.9769 -0.2762  0.3311
 3252UDC     C135762  17.110   2.233   6.529 -0.4302  0.1656  0.2283
 3252UDC     C235763  17.202   2.197   6.653  0.6136 -0.6159  0.1988
 3252UDC     C335764  17.219   2.285   6.781  0.3767 -0.1411 -1.2546
 3252UDC     C435765  17.357   2.263   6.850 -0.8658  0.2393 -0.1921
 3252UDC     C535766  17.471   2.302   6.757 -1.0933  0.3118  0.4712
 3252UDC     C635767  17.620   2.261   6.793 -0.1439 -0.1964  0.7397
 3252UDC     C735768  17.633   2.266   6.947 -1.8989  0.8718  0.4192
 3252UDC     C835769  17.768   2.317   6.999 -0.5548 -1.4940 -0.8582
 3252UDC     C935770  17.796   2.339   7.148  0.6278  0.2494  0.8954
 3252UDC    C1035771  17.933   2.391   7.178 -1.2709 -0.3244  0.6242
 3252UDC    C1135772  17.957   2.422   7.327 -0.0961  0.2066  0.0811
 3253UDC     C135773   4.317  12.813  11.011 -0.3778 -0.3642 -0.1643
 3253UDC     C235774   4.246  12.673  11.006 -0.4566  0.1795  0.1564
 3253UDC     C335775   4.273  12.619  10.867  0.3978  1.3815  0.3042
 3253UDC     C435776   4.417  12.615  10.829 -0.8290 -0.3386  0.6414
 3253UDC     C535777   4.438  12.622  10.678  0.0551  0.8195  1.3509
 3253UDC     C635778   4.576  12.636  10.622 -0.5088 -0.5314  0.1564
 3253UDC     C735779   4.574  12.639  10.472 -0.2456  0.1708  1.8624
 3253UDC     C835780   4.689  12.569  10.408  0.7221  0.6024  0.2334
 3253UDC     C935781   4.725  12.604  10.262  0.2767 -0.0585 -0.4171
 3253UDC    C1035782   4.822  12.499  10.196 -0.8819 -0.8518 -1.3334
 3253UDC    C1135783   4.761  12.369  10.141  1.0046  1.7372 -0.1795
 3254UDC     C135784  19.484   3.517  13.193  0.0086 -0.2661  0.1330
 3254UDC     C235785  19.481   3.626  13.080  0.0539 -0.0304 -0.2020
 3254UDC     C335786  19.572   3.592  12.955 -1.0125 -0.6920 -0.2200
 3254UDC     C435787  19.599   3.447  12.918  0.9769  0.6675  0.7849
 3254UDC     C535788  19.627   3.429  12.767  0.7944 -0.9907  0.5953
 3254UDC     C635789  19.684   3.289  12.732  0.3236  0.5806 -0.0101
 3254UDC     C735790  19.725   3.250  12.591  0.8472 -0.2668 -0.3804
 3254UDC     C835791  19.618   3.211  12.491  0.4537 -0.3926  0.8233
 3254UDC     C935792  19.530   3.102  12.544  0.1436 -0.8484 -1.1045
 3254UDC    C1035793  19.589   2.971  12.592  0.1567  0.0218  1.1842
 3254UDC    C1135794  19.593   2.938  12.742 -0.4114  0.6339 -0.7144
 3255UDC     C135795   1.788   9.348  18.687  0.4074 -0.0942 -0.9083
 3255UDC     C235796   1.642   9.322  18.646 -0.8402  0.4118  0.3454
 3255UDC     C335797   1.581   9.445  18.583  0.8299  0.7886 -0.5810
 3255UDC     C435798   1.428   9.464  18.572 -0.0024 -0.6623 -0.2073
 3255UDC     C535799   1.397   9.595  18.500 -0.0340  0.1976 -0.1204
 3255UDC     C635800   1.431   9.730  18.575 -0.0558  0.4375  0.6929
 3255UDC     C735801   1.387   9.864  18.514  0.1291 -0.4315  0.4773
 3255UDC     C835802   1.406   9.983  18.606 -0.3164 -0.2058 -0.8134
 3255UDC     C935803   1.292   9.998  18.702 -0.0206 -0.1701 -0.1611
 3255UDC    C1035804   1.301  10.114  18.800 -0.6467 -0.6363 -0.3273
 3255UDC    C1135805   1.372  10.236  18.733  0.5039 -0.0732 -0.8658
 3256UDC     C135806   2.535   7.219  14.677 -0.7693 -0.1798 -0.0352
 3256UDC     C235807   2.641   7.171  14.575  0.3539 -0.8596  0.1661
 3256UDC     C335808   2.594   7.237  14.448  0.4248 -0.2618 -0.4435
 3256UDC     C435809   2.697   7.262  14.334 -0.0509  0.2519 -0.9411
 3256UDC     C535810   2.640   7.307  14.200  0.0336  0.3869  0.5355
 3256UDC     C635811   2.740   7.296  14.083 -0.5743 -0.1474 -0.6750
 3256UDC     C735812   2.722   7.177  13.992  0.5273 -0.3309  0.0891
 3256UDC     C835813   2.753   7.047  14.069  0.4937 -0.2054 -0.4691
 3256UDC     C935814   2.767   6.920  13.992  0.2664  0.7144  0.9608
 3256UDC    C1035815   2.865   6.820  14.070 -0.0520 -0.0102  0.6503
 3256UDC    C1135816   2.846   6.675  14.014 -0.1885 -0.8298  0.7012
 3257UDC     C135817   0.843   9.263   6.170  0.1413  0.7074 -0.5064
 3257UDC     C235818   0.793   9.351   6.282  0.1574  0.2142  0.1246
 3257UDC     C335819   0.900   9.357   6.392 -1.6745 -0.0549 -0.5762
 3257UDC     C435820   0.968   9.244   6.468 -0.8204 -0.0161 -0.2003
 3257UDC     C535821   0.877   9.147   6.545  0.8916 -1.1804 -0.2989
 3257UDC     C635822   0.798   9.225   6.649 -1.1036 -0.6507 -0.0592
 3257UDC     C735823   0.872   9.251   6.781  0.4240  0.7350  0.3725
 3257UDC     C835824   0.797   9.347   6.876 -0.0657 -0.3231  0.9105
 3257UDC     C935825   0.687   9.275   6.958 -0.8184  0.4920 -0.6035
 3257UDC    C1035826   0.675   9.123   6.938  0.0778  0.3847 -0.0348
 3257UDC    C1135827   0.587   9.056   7.045  1.2264 -0.7227 -0.1119
 3258UDC     C135828  12.061  11.248  18.811 -0.2965 -0.1543  0.0160
 3258UDC     C235829  12.181  11.275  18.914  1.5211  0.7412 -0.7302
 3258UDC     C335830  12.163  11.216  19.064  0.2172  1.1794 -0.3458
 3258UDC     C435831  12.064  11.287  19.164 -0.5565 -0.8268  0.3151
 3258UDC     C535832  12.074  11.264  19.313 -0.2143 -0.0476  0.0257
 3258UDC     C635833  11.994  11.363  19.394  0.3087  0.0680  0.1864
 3258UDC     C735834  12.041  11.340  19.542 -0.2467  0.3493  0.1753
 3258UDC     C835835  11.994  11.443  19.648 -0.5648  1.0368 -0.5105
 3258UDC     C935836  11.903  11.377  19.751 -0.5612 -1.1316 -0.7027
 3258UDC    C1035837  11.779  11.295  19.702 -0.4878 -1.0455  0.7453
 3258UDC    C1135838  11.762  11.179  19.801  0.5515 -0.0239  0.5267
 3259UDC     C135839  19.741  15.195   0.020 -0.1011  0.9561 -0.5036
 3259UDC     C235840  19.801  15.047   0.048 -0.5003 -0.3544 -0.7093
 3259UDC     C335841  19.853  14.979  -0.081  0.8777  0.1245 -0.3406
 3259UDC     C435842  19.990  14.905  -0.063  0.2511  0.9764 -0.3674
 3259UDC     C535843  20.073  14.861  -0.184  0.5038  0.1777  0.0836
 3259UDC     C635844  20.147  14.967  -0.266 -0.0519 -0.1673 -0.4481
 3259UDC     C735845  20.300  14.969  -0.250 -0.0865 -1.0348  0.5469
 3259UDC     C835846  20.362  15.091  -0.327  0.6152  0.1280  0.2685
 3259UDC     C935847  20.500  15.145  -0.286  0.0623 -0.0175 -0.4713
 3259UDC    C1035848  20.543  15.265  -0.369 -0.1942 -0.6792 -0.8261
 3259UDC    C1135849  20.649  15.361  -0.298 -0.2442  0.5375 -0.1570
 3260UDC     C135850  11.862   1.961  11.283 -0.2618 -0.8223  0.6475
 3260UDC     C235851  11.974   2.018  11.182 -0.2583 -0.8890 -0.6573
 3260UDC     C335852  11.930   1.985  11.036 -0.5556  0.8945  0.0115
 3260UDC     C435853  11.987   1.851  10.967  0.1046 -0.2486  0.3855
 3260UDC     C535854  12.094   1.885  10.862 -1.1756 -0.1975 -0.2351
 3260UDC     C635855  12.051   1.985  10.759 -1.4688 -0.1477 -0.2478
 3260UDC     C735856  12.146   2.103  10.770 -0.2884  0.1739 -0.7656
 3260UDC     C835857  12.091   2.228  10.702 -0.4905  0.5136  0.0822
 3260UDC     C935858  12.065   2.207  10.557  0.2099 -0.2301 -0.0112
 3260UDC    C1035859  11.974   2.307  10.486 -0.3405 -0.1701  0.1381
 3260UDC    C1135860  12.037   2.439  10.439  0.1395  0.1201  0.3389
 3261UDC     C135861  18.758  19.914  11.996  0.5139 -0.4600 -0.0952
 3261UDC     C235862  18.742  20.060  12.044 -0.4942  0.2104 -0.6182
 3261UDC     C335863  18.633  20.055  12.147  0.6932 -0.2016 -0.4669
 3261UDC     C435864  18.678  20.022  12.287  0.5386  0.5149 -0.7451
 3261UDC     C535865  18.574  20.016  12.403  0.3628 -0.5398 -0.0829
 3261UDC     C635866  18.617  19.931  12.528  0.1955  1.2073 -0.0285
 3261UDC     C735867  18.765  19.939  12.552 -0.5829  0.5010 -0.7820
 3261UDC     C835868  18.824  19.838  12.659  0.1290  0.9228  0.0769
 3261UDC     C935869  18.985  19.831  12.651  0.6172  0.7395 -0.1990
 3261UDC    C1035870  19.089  19.904  12.725  1.1032 -0.0125 -0.6220
 3261UDC    C1135871  19.237  19.882  12.680 -0.7304 -0.4347 -0.6695
 3262UDC     C135872   7.335  10.543   6.787 -0.2995 -0.1892  0.7054
 3262UDC     C235873   7.435  10.430   6.798 -0.5810 -0.4780 -0.8379
 3262UDC     C335874   7.396  10.286   6.752  1.5546 -0.2089 -0.7697
 3262UDC     C435875   7.490  10.174   6.788 -1.6514 -1.0597  0.9091
 3262UDC     C535876   7.440  10.088   6.896 -1.3993 -1.0873 -0.2115
 3262UDC     C635877   7.543   9.980   6.933 -0.7492  0.3501 -0.3779
 3262UDC     C735878   7.481   9.870   7.013 -0.1216 -0.3810  0.8050
 3262UDC     C835879   7.554   9.737   6.993 -0.2247 -0.4422 -0.7089
 3262UDC     C935880   7.466   9.608   7.008  0.0142 -0.3609  0.8806
 3262UDC    C1035881   7.539   9.480   6.948 -1.2291 -1.2459  0.2648
 3262UDC    C1135882   7.643   9.416   7.044 -0.0032  0.4153 -1.9042
 3263UDC     C135883  14.660   5.626   8.807 -1.1915 -0.0931 -0.8487
 3263UDC     C235884  14.620   5.634   8.656 -0.2154  0.4561 -0.1086
 3263UDC     C335885  14.723   5.632   8.544 -0.0592  0.6649 -0.8325
 3263UDC     C435886  14.789   5.499   8.504 -0.5733  0.5972 -0.3685
 3263UDC     C535887  14.866   5.406   8.602 -0.0599 -0.8962  0.4582
 3263UDC     C635888  14.875   5.267   8.536 -0.2415 -0.0492 -0.2114
 3263UDC     C735889  14.982   5.256   8.428  0.5089  0.0751 -0.3438
 3263UDC     C835890  15.076   5.141   8.452 -0.3774 -0.5693 -0.2930
 3263UDC     C935891  15.215   5.180   8.402 -0.0426 -1.0995  1.0542
 3263UDC    C1035892  15.336   5.083   8.406  0.2510 -0.8896  0.2120
 3263UDC    C1135893  15.477   5.131   8.369  0.4550  0.9383 -0.8645
 3264UDC     C135894   0.448  19.885  12.894  0.4756 -0.0930  0.4634
 3264UDC     C235895   0.335  19.947  12.972 -0.3162 -0.1684  0.1564
 3264UDC     C335896   0.335  20.108  12.968 -0.2234  0.6324  0.8959
 3264UDC     C435897   0.275  20.127  12.834  0.2351  0.4892  0.7504
 3264UDC     C535898   0.304  20.267  12.778  0.6042  1.2050 -0.2075
 3264UDC     C635899   0.206  20.366  12.840 -0.8074 -0.1360 -0.0379
 3264UDC     C735900   0.220  20.516  12.818  0.2444  0.2179  0.2496
 3264UDC     C835901   0.202  20.574  12.676  0.4172  0.0805  0.5717
 3264UDC     C935902   0.230  20.726  12.644  0.3632  1.7017 -0.6125
 3264UDC    C1035903   0.383  20.754  12.660  0.1539  0.6602 -0.5532
 3264UDC    C1135904   0.405  20.905  12.677 -0.4043  1.0822 -0.5875
 3265UDC     C135905   9.335  13.260   9.174  0.0571 -0.0709  0.2334
 3265UDC     C235906   9.457  13.342   9.215 -0.2172  0.3512  0.4178
 3265UDC     C335907   9.568  13.252   9.254 -0.4167  0.1899 -0.2733
 3265UDC     C435908   9.613  13.259   9.399 -0.2453 -0.8142  0.2107
 3265UDC     C535909   9.731  13.170   9.431  0.4265  0.0378  0.3067
 3265UDC     C635910   9.766  13.178   9.576 -1.7462 -0.7515 -0.8145
 3265UDC     C735911   9.666  13.135   9.693  0.3470 -0.6919  0.2706
 3265UDC     C835912   9.728  13.146   9.836 -0.0300 -0.8483  0.6544
 3265UDC     C935913   9.819  13.038   9.885 -0.0598  1.1695  0.0106
 3265UDC    C1035914   9.964  13.084   9.931 -1.1606  0.4138 -0.4315
 3265UDC    C1135915  10.001  12.989  10.047 -0.3602  0.2968  0.3328
 3266UDC     C135916   4.891   4.622   7.000  0.8147  0.0223 -0.7279
 3266UDC     C235917   4.905   4.701   7.131  1.0030  0.2781  1.3241
 3266UDC     C335918   4.821   4.672   7.254  0.5304  0.4446 -1.0554
 3266UDC     C435919   4.862   4.741   7.381  0.2261 -0.6674  0.0900
 3266UDC     C535920   5.015   4.764   7.407  0.1414 -1.7534  0.7109
 3266UDC     C635921   5.036   4.834   7.541 -0.7445 -0.7325  0.0015
 3266UDC     C735922   4.953   4.966   7.553  1.0397 -0.1462  0.4070
 3266UDC     C835923   4.930   5.010   7.702 -0.6668  0.3796  1.0225
 3266UDC     C935924   4.847   5.131   7.726 -0.0230  0.0519 -0.0871
 3266UDC    C1035925   4.863   5.183   7.866 -0.3371  0.2681 -0.1720
 3266UDC    C1135926   4.996   5.249   7.917  0.2027  0.2900 -0.9835
 3267UDC     C135927   7.101   9.162   3.249 -0.8163 -0.5432  0.0303
 3267UDC     C235928   7.150   9.047   3.344 -0.2111  0.0654  0.2507
 3267UDC     C335929   7.301   9.026   3.366 -0.1220  0.0409  0.6317
 3267UDC     C435930   7.378   9.127   3.282  0.2932  0.0935 -0.0279
 3267UDC     C535931   7.532   9.137   3.282  0.5871  0.2411  0.1338
 3267UDC     C635932   7.591   9.004   3.221  0.1339  0.0477  0.6455
 3267UDC     C735933   7.661   8.907   3.317  0.8267 -1.2948  0.8681
 3267UDC     C835934   7.775   8.994   3.365 -0.6981  0.6225 -0.8990
 3267UDC     C935935   7.895   8.905   3.414  0.4401 -0.6918 -0.5606
 3267UDC    C1035936   7.976   8.987   3.520  0.1737 -0.2425 -0.1438
 3267UDC    C1135937   8.083   8.912   3.607  2.3743  0.8337  0.2916
 3268UDC     C135938  13.013  14.898   0.244 -0.9907 -0.5893  0.0827
 3268UDC     C235939  13.122  14.841   0.146  1.1005 -0.0593  0.2914
 3268UDC     C335940  13.262  14.830   0.208 -0.5282 -0.2929  0.2333
 3268UDC     C435941  13.362  14.787   0.108 -0.4615  0.2024 -0.4232
 3268UDC     C535942  13.364  14.874  -0.018 -0.2195 -0.2956 -0.1947
 3268UDC     C635943  13.457  14.824  -0.139  0.5479 -0.7788 -0.7692
 3268UDC     C735944  13.389  14.722  -0.221 -0.3168  0.4109  1.0807
 3268UDC     C835945  13.245  14.746  -0.272 -0.6544 -1.2180  1.6060
 3268UDC     C935946  13.184  14.635  -0.360  1.4589  0.3469  0.4779
 3268UDC    C1035947  13.265  14.637  -0.493  0.5512  0.2210 -0.1294
 3268UDC    C1135948  13.174  14.589  -0.606 -0.6203  0.2282 -0.4513
 3269UDC     C135949   1.482  17.521   6.521  0.0986  1.0994  0.3700
 3269UDC     C235950   1.433  17.390   6.564  0.7862  0.1976  0.5825
 3269UDC     C335951   1.431  17.370   6.721  1.2977  0.3644 -0.1056
 3269UDC     C435952   1.522  17.267   6.791  0.3004  0.0456  0.4227
 3269UDC     C535953   1.660  17.291   6.741  0.6006  0.1914 -1.0225
 3269UDC     C635954   1.771  17.257   6.847 -1.7102  0.2789  0.2083
 3269UDC     C735955   1.899  17.208   6.777  0.5397  0.7580 -0.3398
 3269UDC     C835956   2.013  17.305   6.747  0.1349 -0.2860  0.8826
 3269UDC     C935957   2.047  17.406   6.854  0.0718  0.4680  0.5132
 3269UDC    C1035958   2.183  17.469   6.846  0.8055 -0.7065 -0.1957
 3269UDC    C1135959   2.309  17.381   6.838  0.6712 -0.3152  0.8020
 3270UDC     C135960  14.908  12.039  10.867  0.3013 -0.4489 -1.1555
 3270UDC     C235961  14.759  12.040  10.899  0.4719  1.3868  0.3446
 3270UDC     C335962  14.749  11.988  11.037  0.1687  0.7464  0.2149
 3270UDC     C435963  14.609  11.961  11.087 -0.0562  0.3782 -0.6450
 3270UDC     C535964  14.526  12.092  11.081  0.1966 -0.8424  0.8247
 3270UDC     C635965  14.532  12.182  11.202 -0.2419 -1.0919 -1.2204
 3270UDC     C735966  14.547  12.338  11.181 -0.8359 -0.4202  0.3579
 3270UDC     C835967  14.592  12.406  11.315 -0.7134 -0.5315 -0.1261
 3270UDC     C935968  14.511  12.352  11.436 -0.5195  0.4938 -0.6855
 3270UDC    C1035969  14.406  12.451  11.492 -1.3676  0.1497  0.1642
 3270UDC    C1135970  14.267  12.450  11.423 -0.9434 -0.8470  0.3797
 3271UDC     C135971   3.872  11.167   9.099  0.7173 -0.3267 -0.1160
 3271UDC     C235972   3.911  11.132   8.949 -0.6336  0.2442  0.0986
 3271UDC     C335973   3.813  11.138   8.831  0.1738  0.3075  0.0210
 3271UDC     C435974   3.755  11.286   8.803 -0.2230  0.4362  0.3818
 3271UDC     C535975   3.667  11.308   8.683  1.2384  0.0524 -0.4617
 3271UDC     C635976   3.611  11.455   8.662 -0.0000  1.0269 -0.1342
 3271UDC     C735977   3.475  11.500   8.705 -0.3841  0.2558 -0.4654
 3271UDC     C835978   3.368  11.415   8.639 -0.1261  0.6982 -0.5193
 3271UDC     C935979   3.297  11.464   8.512 -0.2284  1.1111 -0.3397
 3271UDC    C1035980   3.207  11.377   8.422  0.6385  0.8770 -0.4631
 3271UDC    C1135981   3.295  11.258   8.388 -0.5202  0.6090 -0.4160
 3272UDC     C135982   4.345  16.379  12.028 -0.3034  0.0494  0.1653
 3272UDC     C235983   4.430  16.490  11.963  1.4300 -1.6395 -0.2957
 3272UDC     C335984   4.340  16.585  11.877  0.2808 -0.6178 -0.0094
 3272UDC     C435985   4.318  16.564  11.727  0.4500 -1.8915  0.2131
 3272UDC     C535986   4.439  16.487  11.677 -0.6433  0.2308  0.7021
 3272UDC     C635987   4.439  16.507  11.527 -0.1380  1.6858  0.1330
 3272UDC     C735988   4.571  16.535  11.461 -0.2705  0.4413  0.9367
 3272UDC     C835989   4.551  16.530  11.304  0.2969 -0.4484  0.6482
 3272UDC     C935990   4.562  16.398  11.230  0.1070  1.1276 -0.5323
 3272UDC    C1035991   4.535  16.403  11.078 -0.4329  0.0028 -0.8712
 3272UDC    C1135992   4.528  16.255  11.042  0.1710  0.6293  1.4182
 3273UDC     C135993   4.412  12.380   4.437 -0.9847 -0.3415  0.2045
 3273UDC     C235994   4.446  12.528   4.403  1.0589 -0.1210 -0.2111
 3273UDC     C335995   4.401  12.605   4.523  0.8405  0.0025 -0.0148
 3273UDC     C435996   4.246  12.608   4.550 -0.7643 -0.3014 -0.3801
 3273UDC     C535997   4.165  12.710   4.457 -0.8492  0.3185 -0.8405
 3273UDC     C635998   4.220  12.853   4.457 -0.5196  0.4001 -1.0427
 3273UDC     C735999   4.141  12.951   4.373 -0.5095  0.2632 -0.0646
 3273UDC     C836000   4.221  12.991   4.246 -0.2186  0.2176  0.4291
 3273UDC     C936001   4.320  13.109   4.250  0.1961 -0.0828  0.3332
 3273UDC    C1036002   4.437  13.101   4.154  0.0353 -0.3101  0.7962
 3273UDC    C1136003   4.517  13.230   4.180  0.1860  0.4389 -0.1451
 3274UDC     C136004   4.462  11.861   0.357  0.2506  0.1445  0.0756
 3274UDC     C236005   4.420  11.785   0.236 -0.2174 -0.6699 -0.3446
 3274UDC     C336006   4.277  11.731   0.233 -1.1150  0.0975  0.3905
 3274UDC     C436007   4.246  11.598   0.295  0.2861  0.2262 -0.7824
 3274UDC     C536008   4.111  11.530   0.273  0.5786  0.5755  0.5016
 3274UDC     C636009   4.110  11.456   0.144 -0.5285 -0.2626 -0.0501
 3274UDC     C736010   4.227  11.362   0.131 -0.5673  0.8081  0.1599
 3274UDC     C836011   4.194  11.245   0.037  0.0830 -0.0975  0.2506
 3274UDC     C936012   4.312  11.171  -0.012 -0.3818  1.0816  0.8623
 3274UDC    C1036013   4.441  11.257  -0.020 -0.1194  0.8554  0.6351
 3274UDC    C1136014   4.556  11.159  -0.060  0.9674 -0.0199  0.4108
 3275UDC     C136015   4.590  14.515   7.371 -0.5746 -0.4452 -0.6645
 3275UDC     C236016   4.552  14.370   7.377  0.9781  0.5927  0.6918
 3275UDC     C336017   4.659  14.293   7.303 -0.4340 -0.0852 -0.4876
 3275UDC     C436018   4.658  14.306   7.154 -0.6841 -0.8915 -0.6000
 3275UDC     C536019   4.748  14.208   7.072  0.7910 -0.8070  0.3966
 3275UDC     C636020   4.675  14.084   7.022 -0.0037 -0.0617 -0.4395
 3275UDC     C736021   4.600  14.110   6.886  0.0612 -0.3088 -1.0047
 3275UDC     C836022   4.567  13.975   6.810 -0.9393  0.2952  0.8788
 3275UDC     C936023   4.490  13.994   6.685  0.1233 -0.4396  0.6691
 3275UDC    C1036024   4.458  13.863   6.629  0.6069  0.7940 -0.4973
 3275UDC    C1136025   4.583  13.796   6.588 -1.4545  0.5395  0.7152
 3276UDC     C136026   3.148   1.523  16.510  0.2092  0.4972 -0.0353
 3276UDC     C236027   3.258   1.417  16.471  0.4784 -0.1749 -0.8754
 3276UDC     C336028   3.357   1.474  16.372 -0.5213  0.4746 -0.2423
 3276UDC     C436029   3.417   1.351  16.289  0.1228 -0.8776 -1.0042
 3276UDC     C536030   3.442   1.391  16.146  1.0091  0.1383  0.3361
 3276UDC     C636031   3.496   1.284  16.052 -0.5485 -0.7080  0.9286
 3276UDC     C736032   3.399   1.176  16.000  0.4139  0.2949 -0.5549
 3276UDC     C836033   3.450   1.036  15.963  0.2537  0.4921  1.3532
 3276UDC     C936034   3.511   1.047  15.827 -0.4976 -0.9755  1.0191
 3276UDC    C1036035   3.445   0.999  15.695 -0.2490  0.6785 -0.3647
 3276UDC    C1136036   3.471   1.120  15.603  0.7186  0.6125  0.8119
 3277UDC     C136037  18.481  18.960  12.189  0.1810 -0.5190  0.7470
 3277UDC     C236038  18.532  18.853  12.284 -0.2526 -0.1889  0.6509
 3277UDC     C336039  18.617  18.753  12.200  0.4624 -0.9694  0.8306
 3277UDC     C436040  18.699  18.646  12.276  0.4349  0.1010  0.3052
 3277UDC     C536041  18.770  18.548  12.178 -0.0337 -0.3966 -0.2754
 3277UDC     C636042  18.763  18.407  12.231  0.3717 -0.9181  0.2789
 3277UDC     C736043  18.853  18.392  12.361  0.1597 -0.3044 -0.1392
 3277UDC     C836044  18.881  18.248  12.385 -0.0054  0.6153 -0.6183
 3277UDC     C936045  18.947  18.225  12.523 -0.7533  0.4887  0.2403
 3277UDC    C1036046  19.014  18.088  12.523  1.0424 -0.9069 -1.1218
 3277UDC    C1136047  19.097  18.085  12.394 -0.3517  0.4639  0.5121
 3278UDC     C136048   2.187   0.807  17.983 -0.1756 -0.1342 -0.9535
 3278UDC     C236049   2.057   0.759  17.923  0.2240 -0.4525  0.4388
 3278UDC     C336050   2.014   0.613  17.912 -0.3830  0.2353  0.6354
 3278UDC     C436051   1.923   0.577  17.792  0.2256 -0.0465 -0.0906
 3278UDC     C536052   1.865   0.432  17.758  0.8052 -1.1556 -0.1382
 3278UDC     C636053   1.796   0.448  17.621 -0.8425  0.1944  0.8877
 3278UDC     C736054   1.718   0.323  17.563  0.0549 -0.9228  0.3136
 3278UDC     C836055   1.658   0.357  17.420  0.6723 -0.6317 -0.3037
 3278UDC     C936056   1.780   0.342  17.333 -0.0291  0.7504 -0.1962
 3278UDC    C1036057   1.768   0.409  17.204 -0.4599 -0.6010  0.4798
 3278UDC    C1136058   1.660   0.363  17.108  0.3807 -0.9790 -0.6844
 3279UDC     C136059  11.170   8.702   1.517 -0.4066  0.0817 -0.8355
 3279UDC     C236060  11.301   8.777   1.540 -0.8970 -0.2097 -1.4687
 3279UDC     C336061  11.385   8.704   1.653 -0.1660 -0.3179  0.0807
 3279UDC     C436062  11.503   8.797   1.694  0.0310 -0.1635 -0.2546
 3279UDC     C536063  11.628   8.725   1.759 -1.0000 -0.2150 -0.2043
 3279UDC     C636064  11.720   8.637   1.671  1.1640  0.0771  0.2658
 3279UDC     C736065  11.803   8.545   1.746 -0.0457 -0.2247  0.5200
 3279UDC     C836066  11.852   8.610   1.876  0.2048  0.0499 -0.7674
 3279UDC     C936067  12.001   8.598   1.871 -0.0108 -0.3362  0.0149
 3279UDC    C1036068  12.092   8.696   1.958  0.8506 -0.7936  0.0815
 3279UDC    C1136069  12.236   8.650   1.992 -0.8093  0.8143 -0.8942
 3280UDC     C136070  13.057   1.279  19.356 -0.5751  0.4082 -0.2343
 3280UDC     C236071  13.214   1.271  19.362  0.1022 -0.7713 -0.1467
 3280UDC     C336072  13.246   1.179  19.485  0.5905 -0.4250  0.8784
 3280UDC     C436073  13.389   1.163  19.514  1.1803  0.5541 -1.3689
 3280UDC     C536074  13.465   1.170  19.379  0.6208  0.5541  0.0698
 3280UDC     C636075  13.599   1.095  19.381 -0.2606  1.0684 -0.9266
 3280UDC     C736076  13.679   1.097  19.516 -0.1912  1.0259 -1.6757
 3280UDC     C836077  13.826   1.065  19.478 -0.3157  0.1583  0.2793
 3280UDC     C936078  13.932   1.098  19.592 -0.6242 -0.3442  0.8185
 3280UDC    C1036079  14.070   1.031  19.587  0.7045  0.5900 -0.1202
 3280UDC    C1136080  14.076   0.896  19.663 -0.4110 -0.4052 -0.1405
 3281UDC     C136081  15.494   6.539   0.511 -0.1049  0.6147  0.5935
 3281UDC     C236082  15.478   6.393   0.472 -0.0866 -0.2280  1.3417
 3281UDC     C336083  15.408   6.298   0.563  0.6846 -0.1493  0.5112
 3281UDC     C436084  15.488   6.214   0.664 -0.6252 -0.2200  0.6880
 3281UDC     C536085  15.402   6.142   0.766  0.3166  0.7456  0.4740
 3281UDC     C636086  15.486   6.069   0.867 -0.7763 -0.6755  0.3418
 3281UDC     C736087  15.610   6.158   0.904 -0.7299  1.0577  0.6256
 3281UDC     C836088  15.756   6.108   0.884 -0.9278 -0.1012  0.2466
 3281UDC     C936089  15.781   5.992   0.981 -0.0634 -0.0990 -0.3954
 3281UDC    C1036090  15.926   5.991   1.045  0.4516  0.8485  0.6041
 3281UDC    C1136091  15.952   5.870   1.131  0.4205 -0.1622 -0.7193
 3282UDC     C136092  17.768   6.700   1.070  0.9508 -1.4675  0.6168
 3282UDC     C236093  17.854   6.569   1.068  0.3716 -0.4865  0.4448
 3282UDC     C336094  17.984   6.592   1.131 -0.0770  0.1151  0.2308
 3282UDC     C436095  18.002   6.487   1.244 -0.1570 -0.5733  0.4625
 3282UDC     C536096  17.947   6.344   1.214 -0.3994  0.3828  0.7787
 3282UDC     C636097  17.996   6.249   1.323 -0.3554  0.1837  0.5018
 3282UDC     C736098  18.144   6.255   1.362  0.2855  0.4105 -0.3001
 3282UDC     C836099  18.154   6.242   1.519 -0.6469 -0.1892  0.3073
 3282UDC     C936100  18.305   6.215   1.546  0.7324  0.6278 -0.6104
 3282UDC    C1036101  18.330   6.143   1.681 -0.5706 -0.4820 -0.2154
 3282UDC    C1136102  18.486   6.137   1.702 -0.0258 -0.9076  0.3072
 3283UDC     C136103  14.156   9.887  19.928 -0.1192  0.4652  0.4887
 3283UDC     C236104  14.236   9.761  19.926  0.5902  0.3613 -0.7208
 3283UDC     C336105  14.159   9.624  19.905  0.1787 -0.4570  0.2097
 3283UDC     C436106  14.230   9.502  19.847  0.0480  0.2758 -0.1192
 3283UDC     C536107  14.366   9.472  19.922 -0.5087 -0.4458  0.2208
 3283UDC     C636108  14.381   9.346  20.004  0.3864 -0.7741 -0.3613
 3283UDC     C736109  14.417   9.231  19.917  0.0928  0.3722 -0.3480
 3283UDC     C836110  14.448   9.106  19.999  0.3569  0.7368  1.0685
 3283UDC     C936111  14.349   9.091  20.113 -0.8324  1.2998  0.1824
 3283UDC    C1036112  14.205   9.071  20.059 -0.5315  0.7783 -0.1624
 3283UDC    C1136113  14.188   8.948  19.962 -0.8637 -0.5383 -1.1610
 3284UDC     C136114   9.129   0.585  17.456  0.2214  0.3985 -0.0294
 3284UDC     C236115   9.165   0.434  17.472  0.8684  0.1409 -0.1588
 3284UDC     C336116   9.287   0.405  17.381 -0.0434  0.0520 -1.6831
 3284UDC     C436117   9.382   0.285  17.407  0.9835 -0.6081  1.5338
 3284UDC     C536118   9.506   0.271  17.325  1.1288  0.1309  0.6213
 3284UDC     C636119   9.553   0.126  17.345 -0.2276  0.6954 -0.6628
 3284UDC     C736120   9.596   0.081  17.480 -1.0110  0.2259 -0.7456
 3284UDC     C836121   9.640  -0.070  17.475 -0.1499 -0.8060 -0.3792
 3284UDC     C936122   9.681  -0.119  17.617  0.5273 -0.4444  0.9829
 3284UDC    C1036123   9.689  -0.270  17.636  0.8066 -0.0730 -0.5670
 3284UDC    C1136124   9.772  -0.322  17.758  0.5529 -1.1796 -0.8664
 3285UDC     C136125   1.453  13.454  17.727  0.3544 -0.7288  0.3565
 3285UDC     C236126   1.583  13.399  17.789  0.1044  0.2268 -0.4119
 3285UDC     C336127   1.639  13.272  17.717  0.3421  0.3242 -0.4561
 3285UDC     C436128   1.751  13.194  17.794  0.6990 -0.5888 -0.9035
 3285UDC     C536129   1.736  13.173  17.950 -1.1326  0.4453 -0.0850
 3285UDC     C636130   1.849  13.098  18.024  0.1289 -0.2743 -0.0072
 3285UDC     C736131   1.996  13.148  18.014  1.4044 -0.2576  0.1258
 3285UDC     C836132   2.008  13.299  18.059 -0.4326  0.3337 -0.6886
 3285UDC     C936133   2.008  13.337  18.207 -0.3668  0.3353  0.7748
 3285UDC    C1036134   2.048  13.487  18.208  0.0642  1.4641  0.6050
 3285UDC    C1136135   1.910  13.550  18.207  0.0132 -0.2531  1.0085
 3286UDC     C136136  19.188  10.223   9.733  0.7009  0.5277 -0.1209
 3286UDC     C236137  19.301  10.215   9.627 -0.3852  0.1176 -0.0629
 3286UDC     C336138  19.233  10.155   9.502  0.1670 -0.5234  1.6953
 3286UDC     C436139  19.142  10.030   9.528  0.9776  0.2172  0.4944
 3286UDC     C536140  19.109   9.958   9.396  1.1051  0.2346  0.8742
 3286UDC     C636141  19.008   9.844   9.425  0.5434 -1.0096  0.3961
 3286UDC     C736142  19.068   9.728   9.514  1.3016  0.1070 -0.4402
 3286UDC     C836143  18.952   9.638   9.557 -0.6458  0.8444 -0.4016
 3286UDC     C936144  18.985   9.517   9.645 -0.4265 -0.2709  0.0554
 3286UDC    C1036145  18.861   9.422   9.668 -0.5273 -0.6868  0.1791
 3286UDC    C1136146  18.729   9.437   9.593  0.2808  0.1038  0.2216
 3287UDC     C136147  18.248  16.446  11.680  0.8878  0.7550 -0.0630
 3287UDC     C236148  18.392  16.387  11.707  0.0687 -0.0835  0.1852
 3287UDC     C336149  18.487  16.378  11.586  0.2859 -0.3895  0.9085
 3287UDC     C436150  18.416  16.343  11.454 -1.0252  0.5925  1.1996
 3287UDC     C536151  18.502  16.254  11.362 -1.0319 -0.3766 -0.3173
 3287UDC     C636152  18.431  16.217  11.238 -0.6441  0.0204 -0.3943
 3287UDC     C736153  18.518  16.158  11.123  0.0405  0.7880 -1.0585
 3287UDC     C836154  18.446  16.121  10.994  0.4058  0.1518  0.7601
 3287UDC     C936155  18.545  16.069  10.886  0.2888  0.2832 -0.2257
 3287UDC    C1036156  18.631  16.154  10.779  0.1784  0.0501  0.7567
 3287UDC    C1136157  18.753  16.095  10.705 -0.5105 -0.0393 -0.6775
 3288UDC     C136158  17.709  15.220   3.273 -0.1438  0.4027  0.1571
 3288UDC     C236159  17.590  15.298   3.333 -0.4003 -0.3720  0.5551
 3288UDC     C336160  17.444  15.252   3.329 -0.2306 -0.1238  0.2389
 3288UDC     C436161  17.345  15.298   3.426  1.2215 -0.2708 -0.1270
 3288UDC     C536162  17.213  15.222   3.386  0.1213 -0.0408 -0.2120
 3288UDC     C636163  17.092  15.217   3.479 -0.3138 -0.6851 -0.7545
 3288UDC     C736164  17.000  15.113   3.408 -0.0783  0.0997  0.5720
 3288UDC     C836165  16.877  15.069   3.498 -0.1095  0.2823 -0.4055
 3288UDC     C936166  16.752  15.156   3.478  0.3065 -0.2870  0.3973
 3288UDC    C1036167  16.640  15.132   3.583  0.5469  0.5625 -0.0364
 3288UDC    C1136168  16.525  15.231   3.603  0.9575  0.2748  0.0393
 3289UDC     C136169   3.490   5.059  15.434  1.5758 -0.4010  0.8338
 3289UDC     C236170   3.419   4.937  15.498  0.6582 -0.3882  0.2937
 3289UDC     C336171   3.351   4.986  15.623 -0.1298 -0.0335 -0.6066
 3289UDC     C436172   3.445   5.055  15.734  0.0052  0.4156  0.1243
 3289UDC     C536173   3.359   5.048  15.856  0.0806 -0.4811 -0.4578
 3289UDC     C636174   3.432   5.054  15.993  0.1154  0.0501  0.1859
 3289UDC     C736175   3.339   5.026  16.113  0.4168  0.5933 -1.0878
 3289UDC     C836176   3.419   4.997  16.240 -0.4645  0.8308  0.3194
 3289UDC     C936177   3.338   5.025  16.364 -0.5936 -0.0500 -0.5737
 3289UDC    C1036178   3.331   5.168  16.417  0.0814 -0.0280 -0.2201
 3289UDC    C1136179   3.186   5.221  16.418 -0.8485  0.3678  0.0761
 3290UDC     C136180   9.979  12.821  18.357 -0.1189  0.4820 -0.2596
 3290UDC     C236181  10.041  12.846  18.217  0.4153 -0.4905 -0.7363
 3290UDC     C336182   9.971  12.956  18.127  0.9872  0.0638  0.1563
 3290UDC     C436183  10.045  13.009  18.005  0.2298 -0.1856 -0.9227
 3290UDC     C536184  10.134  12.908  17.944  1.0382  0.7832  0.6196
 3290UDC     C636185  10.059  12.801  17.860 -0.0097 -0.1503 -0.4038
 3290UDC     C736186  10.153  12.701  17.790 -0.1765 -0.5128 -0.0649
 3290UDC     C836187  10.091  12.623  17.669  0.6925  0.4914 -0.2208
 3290UDC     C936188  10.158  12.483  17.651 -0.2508  1.2517  0.3270
 3290UDC    C1036189  10.115  12.398  17.520  0.2447 -0.7923  0.0209
 3290UDC    C1136190  10.219  12.448  17.412  0.8942 -0.1993  0.5229
 3291UDC     C136191   2.934   8.351   9.410  0.0899  0.2227  0.0450
 3291UDC     C236192   2.993   8.361   9.553  0.0159  0.1998 -0.2450
 3291UDC     C336193   3.141   8.357   9.546 -0.0791  0.1360  0.1871
 3291UDC     C436194   3.218   8.384   9.677  0.1644 -0.0416 -0.9026
 3291UDC     C536195   3.349   8.474   9.666  0.3312 -0.0132 -0.6476
 3291UDC     C636196   3.482   8.397   9.650  0.5799  0.3506 -0.2905
 3291UDC     C736197   3.507   8.311   9.529  0.7652  0.6957 -0.5711
 3291UDC     C836198   3.647   8.250   9.525  0.4305 -0.3520  0.0693
 3291UDC     C936199   3.695   8.153   9.427  0.3500  0.3222  0.5606
 3291UDC    C1036200   3.605   8.030   9.449 -0.4942 -0.3352 -0.7403
 3291UDC    C1136201   3.677   7.889   9.445 -1.3622  0.2346  0.1891
 3292UDC     C136202   0.258   5.029  13.071  0.7162 -0.8539 -0.1553
 3292UDC     C236203   0.297   4.992  12.924  0.7632  0.6884  0.0657
 3292UDC     C336204   0.331   4.843  12.900 -0.8537  0.5207  0.7068
 3292UDC     C436205   0.419   4.799  12.788  1.0768  0.2862  1.0253
 3292UDC     C536206   0.361   4.789  12.647  0.5689  0.4897  0.2254
 3292UDC     C636207   0.459   4.762  12.526  0.3120 -0.2049  1.1923
 3292UDC     C736208   0.543   4.878  12.466  0.0617  0.1878  0.6513
 3292UDC     C836209   0.544   4.859  12.316  0.4075  0.8302 -0.0968
 3292UDC     C936210   0.411   4.858  12.234 -0.3402 -0.0984 -0.3630
 3292UDC    C1036211   0.434   4.907  12.097 -1.1101 -0.9934  0.6097
 3292UDC    C1136212   0.316   4.937  12.011 -0.6540 -0.7301  0.5339
 3293UDC     C136213  15.936  14.904  10.291  0.2683 -0.0033 -0.4243
 3293UDC     C236214  15.886  14.872  10.434 -0.0687  0.0829 -0.1602
 3293UDC     C336215  15.875  14.990  10.529 -0.4250  0.3073 -0.8609
 3293UDC     C436216  16.007  15.038  10.599 -0.8652 -0.4672  0.6527
 3293UDC     C536217  16.073  14.957  10.707 -0.9674 -0.4343 -0.7475
 3293UDC     C636218  15.965  14.921  10.807  0.5528 -0.5960  0.4157
 3293UDC     C736219  16.026  14.857  10.933  0.5692  0.1454 -0.0091
 3293UDC     C836220  15.940  14.883  11.056 -0.6768 -0.5538 -0.2877
 3293UDC     C936221  15.979  14.787  11.177  0.2134  1.3714  0.7455
 3293UDC    C1036222  15.887  14.788  11.301  1.4555 -0.4157 -0.6377
 3293UDC    C1136223  15.923  14.900  11.400  0.6769  0.0266  0.5836
 3294UDC     C136224  16.175   8.271   4.169  0.2149  0.5625  0.8229
 3294UDC     C236225  16.297   8.360   4.177 -1.5632  0.7025 -0.1429
 3294UDC     C336226  16.411   8.272   4.117  0.9023  0.5691 -0.8246
 3294UDC     C436227  16.550   8.340   4.136  1.5186  0.4540  1.4471
 3294UDC     C536228  16.601   8.321   4.272  0.4241  0.4514 -0.1503
 3294UDC     C636229  16.745   8.358   4.295 -0.0666 -0.2247 -0.7522
 3294UDC     C736230  16.794   8.307   4.433  0.6394 -0.0776  0.5954
 3294UDC     C836231  16.829   8.166   4.447  0.0092  0.1954 -0.0343
 3294UDC     C936232  16.948   8.119   4.367 -0.0674  0.3483  0.6388
 3294UDC    C1036233  16.935   8.085   4.221 -0.0159  0.6559  0.3300
 3294UDC    C1136234  16.850   7.953   4.184 -0.4299 -0.1832 -0.2771
 3295UDC     C136235  15.958  13.861  10.733  0.2894  0.2179  0.2578
 3295UDC     C236236  15.959  13.905  10.877  0.2494  0.1534  0.9477
 3295UDC     C336237  15.938  13.777  10.960  0.6234 -0.0849  0.7466
 3295UDC     C436238  16.067  13.698  10.993  0.0685 -1.1378  0.0054
 3295UDC     C536239  16.042  13.554  11.029  0.3421  0.9506  1.1752
 3295UDC     C636240  16.161  13.457  11.055  0.4922 -0.1690 -0.0028
 3295UDC     C736241  16.116  13.313  11.086 -0.8983  0.6644  0.0533
 3295UDC     C836242  16.228  13.212  11.090 -1.2230 -0.0661 -0.6590
 3295UDC     C936243  16.176  13.069  11.104  1.0825 -0.2897 -0.5701
 3295UDC    C1036244  16.126  13.022  11.243  0.1142 -1.0776  0.1311
 3295UDC    C1136245  16.000  12.938  11.217  0.9643  1.0693 -0.3287
 3296UDC     C136246   8.051  12.377  13.975  0.5010  0.2442 -0.6451
 3296UDC     C236247   8.161  12.452  14.051 -0.4987  0.1389 -0.1159
 3296UDC     C336248   8.234  12.560  13.968 -0.6389  0.2805 -0.4040
 3296UDC     C436249   8.363  12.602  14.043 -0.6565 -0.0910 -0.8571
 3296UDC     C536250   8.480  12.645  13.955 -1.0897 -0.3395  0.0052
 3296UDC     C636251   8.612  12.572  13.971  0.0885  0.8289 -0.1141
 3296UDC     C736252   8.604  12.425  13.926 -0.2535  0.8405  0.5743
 3296UDC     C836253   8.520  12.328  14.006  0.5533  1.1291 -0.1493
 3296UDC     C936254   8.600  12.267  14.130  0.5011 -0.5364 -0.0887
 3296UDC    C1036255   8.710  12.164  14.091 -0.2935 -0.0863  0.0763
 3296UDC    C1136256   8.667  12.049  14.004 -0.0618 -0.4235  0.2009
 3297UDC     C136257  11.474  16.092  13.232  0.1419  0.6162  0.1314
 3297UDC     C236258  11.357  16.176  13.288  0.3565 -0.3273  0.2999
 3297UDC     C336259  11.265  16.248  13.190  0.7039  0.2082 -0.3412
 3297UDC     C436260  11.124  16.279  13.247 -0.7239 -0.3150 -0.9459
 3297UDC     C536261  11.111  16.258  13.402 -0.1979 -0.4665  0.0138
 3297UDC     C636262  10.991  16.330  13.467 -1.6846 -0.3925  0.2785
 3297UDC     C736263  10.961  16.317  13.619  0.1786 -0.3039  0.1172
 3297UDC     C836264  10.930  16.175  13.668 -0.5021  0.6459 -0.1335
 3297UDC     C936265  10.798  16.125  13.606 -0.1284  0.6396 -0.9411
 3297UDC    C1036266  10.765  15.982  13.586  0.2360  0.1064 -1.1109
 3297UDC    C1136267  10.649  15.936  13.494 -0.2963  0.0285  0.9123
 3298UDC     C136268   0.903   9.950   7.081  0.1306 -0.4496 -0.1960
 3298UDC     C236269   0.965  10.053   6.983  0.3733  0.4804  0.3118
 3298UDC     C336270   1.012  10.172   7.065 -1.0174 -0.2702  0.2094
 3298UDC     C436271   0.907  10.236   7.167  0.1415  0.4051  0.4924
 3298UDC     C536272   0.777  10.269   7.091  0.6306  0.0501  0.1906
 3298UDC     C636273   0.670  10.345   7.175 -0.0831  0.3904  0.2009
 3298UDC     C736274   0.538  10.363   7.095 -0.6435 -0.7522  0.0780
 3298UDC     C836275   0.457  10.461   7.183  1.1503  0.7208  1.4572
 3298UDC     C936276   0.339  10.541   7.121  0.2109  0.6801 -0.1838
 3298UDC    C1036277   0.265  10.627   7.224  0.8202 -0.6182  0.0422
 3298UDC    C1136278   0.298  10.606   7.372  0.5666 -0.3099 -0.5145
 3299UDC     C136279   7.377   9.153   4.632 -0.3608 -0.2515 -0.2260
 3299UDC     C236280   7.364   9.157   4.479  0.2664  0.4161 -0.6233
 3299UDC     C336281   7.449   9.058   4.392 -0.0797  0.9840  0.5685
 3299UDC     C436282   7.603   9.032   4.389  0.3215  0.2600 -1.7007
 3299UDC     C536283   7.642   8.935   4.283  0.0563  0.7899 -0.2976
 3299UDC     C636284   7.792   8.913   4.259 -0.0797  0.2537 -0.9613
 3299UDC     C736285   7.864   8.990   4.145 -0.2419  0.2842  0.2075
 3299UDC     C836286   7.766   9.080   4.072 -0.1032 -0.1837 -0.2401
 3299UDC     C936287   7.836   9.141   3.948 -0.5977 -0.6352 -0.3528
 3299UDC    C1036288   7.764   9.264   3.881 -0.1996 -0.4954  0.2278
 3299UDC    C1136289   7.798   9.278   3.735 -0.6546 -0.4949 -0.1757
 3300UDC     C136290  17.332   8.220   6.510  0.3913  1.0326 -0.6352
 3300UDC     C236291  17.442   8.117   6.557 -0.1308 -0.7568  0.5503
 3300UDC     C336292  17.380   8.003   6.633 -0.0220 -0.2427  0.1734
 3300UDC     C436293  17.449   7.949   6.766 -1.0848  0.1050 -0.3774
 3300UDC     C536294  17.572   7.861   6.744  1.0849  0.4743 -0.4079
 3300UDC     C636295  17.692   7.945   6.723 -0.3258 -0.8387  0.7410
 3300UDC     C736296  17.821   7.869   6.706 -0.3192 -0.0021 -0.1504
 3300UDC     C836297  17.823   7.758   6.819 -0.1536  0.7489 -0.8512
 3300UDC     C936298  17.928   7.645   6.821  0.4554  0.4719 -0.1459
 3300UDC    C1036299  17.960   7.570   6.690  0.1340 -0.1328  0.5790
 3300UDC    C1136300  18.086   7.477   6.686 -0.6340  0.2189 -0.9028
 3301UDC     C136301   2.848  10.405  19.921  0.4178 -0.6367 -1.3293
 3301UDC     C236302   2.758  10.345  20.027 -0.0627 -0.3065  0.2722
 3301UDC     C336303   2.849  10.269  20.121 -0.5511 -0.2871  0.4767
 3301UDC     C436304   2.756  10.213  20.236  0.7736 -0.2532  0.0391
 3301UDC     C536305   2.829  10.167  20.366  0.1966  0.0322 -0.3989
 3301UDC     C636306   2.901  10.035  20.349  0.4956 -0.2499 -0.5965
 3301UDC     C736307   2.954   9.962  20.478  0.5071  0.7684 -0.7557
 3301UDC     C836308   2.858   9.935  20.601 -0.0561 -0.2201 -0.0181
 3301UDC     C936309   2.916   9.878  20.729 -1.0444 -0.2568  0.3768
 3301UDC    C1036310   2.803   9.832  20.825 -0.0973  0.1063  0.0181
 3301UDC    C1136311   2.846   9.740  20.939  0.2365 -0.9612  0.5271
 3302UDC     C136312  14.930   2.307  16.914  0.5399  0.2085 -0.5112
 3302UDC     C236313  14.785   2.281  16.957 -0.4889 -0.0763  0.3787
 3302UDC     C336314  14.681   2.311  16.837 -0.2845  0.3796  0.4733
 3302UDC     C436315  14.613   2.175  16.787 -0.8506  0.9032 -0.0193
 3302UDC     C536316  14.506   2.101  16.874 -0.6029 -0.7354  0.4577
 3302UDC     C636317  14.367   2.142  16.845 -0.1010  0.5653  0.0484
 3302UDC     C736318  14.290   2.149  16.976 -0.5737 -0.4936 -2.4392
 3302UDC     C836319  14.154   2.171  16.905  0.6375  0.6741 -0.1963
 3302UDC     C936320  14.035   2.186  17.006  0.2621 -0.6997 -0.3014
 3302UDC    C1036321  13.889   2.226  16.959 -0.3290  0.1196 -0.6051
 3302UDC    C1136322  13.781   2.264  17.065 -0.7789  0.0346 -0.1114
 3303UDC     C136323  15.843  15.312  10.912  0.9205  0.0074 -0.0608
 3303UDC     C236324  15.854  15.265  11.062 -0.3689 -0.0241  0.3071
 3303UDC     C336325  15.725  15.221  11.137 -0.7728  0.6682 -0.1230
 3303UDC     C436326  15.640  15.140  11.036 -0.7827 -0.1248  0.2194
 3303UDC     C536327  15.515  15.094  11.101 -0.5983  0.1532  1.2412
 3303UDC     C636328  15.432  14.992  11.019 -0.5065  0.5712  0.5900
 3303UDC     C736329  15.290  15.000  11.075  0.3312 -0.3216 -0.5404
 3303UDC     C836330  15.204  14.884  11.019 -0.5493 -1.5826  0.2512
 3303UDC     C936331  15.054  14.910  11.041  0.1567  0.0124 -0.4555
 3303UDC    C1036332  14.963  14.890  10.926  0.3359 -0.2405  0.2108
 3303UDC    C1136333  14.976  14.990  10.805  0.6308 -0.7143 -0.0616
 3304UDC     C136334  12.462   9.890   1.584  0.3326  1.2027  0.3117
 3304UDC     C236335  12.601   9.866   1.533  0.0358 -0.5722 -0.0111
 3304UDC     C336336  12.633   9.938   1.398 -0.6754 -0.2102  0.7742
 3304UDC     C436337  12.752   9.878   1.324  0.1919  0.1151 -0.6488
 3304UDC     C536338  12.741   9.891   1.174 -0.5694 -1.7441  0.8021
 3304UDC     C636339  12.875   9.854   1.097  0.7703 -0.2584 -0.3815
 3304UDC     C736340  12.972   9.974   1.099  0.9848 -0.0380 -0.4126
 3304UDC     C836341  12.926  10.114   1.041 -0.3745 -0.2078 -0.2524
 3304UDC     C936342  13.024  10.222   1.066 -0.5857  0.2747 -0.8190
 3304UDC    C1036343  12.962  10.338   0.984 -0.5699 -0.0429 -0.3266
 3304UDC    C1136344  12.817  10.350   1.033 -0.4875 -0.2480 -0.2099
 3305UDC     C136345   7.461  16.052   2.176  0.2661 -0.3741 -0.6962
 3305UDC     C236346   7.489  16.112   2.323  0.1378  0.4085 -0.0703
 3305UDC     C336347   7.526  15.993   2.419 -0.9068  0.5605 -0.8003
 3305UDC     C436348   7.561  16.025   2.565  0.1874 -0.5737 -0.2241
 3305UDC     C536349   7.715  16.008   2.594  0.4674  0.2123  0.1828
 3305UDC     C636350   7.766  15.867   2.576  0.4078  1.2373  0.0308
 3305UDC     C736351   7.677  15.740   2.580 -0.4850  0.1517  0.3735
 3305UDC     C836352   7.631  15.684   2.715 -0.0771 -0.6196 -1.1137
 3305UDC     C936353   7.649  15.533   2.723 -0.2677  0.5440  0.4008
 3305UDC    C1036354   7.609  15.462   2.595  0.8309 -1.6416  0.2576
 3305UDC    C1136355   7.678  15.333   2.601  0.7340  0.5530 -0.6781
 3306UDC     C136356   0.476  17.996  12.479  0.2739 -0.4158  0.0195
 3306UDC     C236357   0.485  18.134  12.426  0.6036  0.8309  1.2534
 3306UDC     C336358   0.389  18.230  12.499 -0.1654 -0.8736  0.5324
 3306UDC     C436359   0.446  18.278  12.628  0.4564  0.6806 -0.8650
 3306UDC     C536360   0.375  18.380  12.717 -1.2513 -0.2014  0.2791
 3306UDC     C636361   0.462  18.503  12.756 -0.7015  1.1584  0.0348
 3306UDC     C736362   0.565  18.495  12.879 -0.1144  1.0033  0.2715
 3306UDC     C836363   0.631  18.633  12.871 -0.0099 -0.8988 -0.1243
 3306UDC     C936364   0.776  18.643  12.903 -0.1184 -0.5399  0.4011
 3306UDC    C1036365   0.824  18.764  12.989  0.0226  0.4836  0.5808
 3306UDC    C1136366   0.805  18.907  12.932 -0.3266  1.3912  0.5221
 3307UDC     C136367  12.927   5.261   0.072 -0.0463  0.6737  0.1605
 3307UDC     C236368  12.949   5.345  -0.052  0.2825  0.4672 -0.7259
 3307UDC     C336369  12.822   5.430  -0.063 -0.5211  0.3869 -0.6832
 3307UDC     C436370  12.858   5.549  -0.148 -0.0482  0.9493 -0.3213
 3307UDC     C536371  12.760   5.662  -0.185 -0.0572 -0.1409 -0.2624
 3307UDC     C636372  12.751   5.786  -0.101 -0.3884  0.8863  0.0798
 3307UDC     C736373  12.892   5.855  -0.101 -0.3376 -0.2126 -0.0939
 3307UDC     C836374  12.940   5.933  -0.228 -0.5738 -0.0710  0.9200
 3307UDC     C936375  13.083   5.985  -0.234 -0.6445 -0.3904 -0.2891
 3307UDC    C1036376  13.095   6.054  -0.364 -0.1112 -1.0192  0.2744
 3307UDC    C1136377  13.229   6.118  -0.394 -0.4159 -0.2647  0.1165
 3308UDC     C136378   2.610   0.034  10.884  0.1147 -1.1541 -0.6092
 3308UDC     C236379   2.651  -0.062  11.001 -0.5439 -0.3039  0.6530
 3308UDC     C336380   2.698  -0.204  10.964 -0.0123  0.6959 -0.8742
 3308UDC     C436381   2.771  -0.277  11.079  0.6703 -0.0176  1.3562
 3308UDC     C536382   2.814  -0.426  11.044  0.5289 -0.6873  0.1937
 3308UDC     C636383   2.823  -0.510  11.175 -0.4807  1.0229 -0.4194
 3308UDC     C736384   2.869  -0.661  11.167 -0.3176 -1.4200  0.8033
 3308UDC     C836385   2.759  -0.749  11.104 -0.0640  0.5507  0.2048
 3308UDC     C936386   2.829  -0.884  11.050 -1.2883 -0.4298  0.1448
 3308UDC    C1036387   2.743  -0.970  10.953 -0.1185  1.3996 -0.4918
 3308UDC    C1136388   2.791  -0.969  10.806 -0.3593 -0.0885 -0.3214
 3309UDC     C136389   3.580  17.625  19.373  0.0890 -0.0811 -0.9696
 3309UDC     C236390   3.601  17.785  19.375 -0.7289  0.4543  1.1892
 3309UDC     C336391   3.466  17.859  19.378 -1.0513 -0.5535  1.0397
 3309UDC     C436392   3.484  18.006  19.371 -1.4362  0.5009 -0.0103
 3309UDC     C536393   3.391  18.072  19.474 -0.0399  1.0078 -0.3037
 3309UDC     C636394   3.260  18.002  19.510  0.0889  1.0282 -0.3416
 3309UDC     C736395   3.150  18.099  19.565 -0.1324  0.4091 -0.3547
 3309UDC     C836396   3.001  18.052  19.581 -0.6054 -0.6601 -0.1519
 3309UDC     C936397   2.907  18.168  19.598 -0.1655 -0.4764  1.5790
 3309UDC    C1036398   2.763  18.137  19.639 -0.0429  0.0061 -0.2004
 3309UDC    C1136399   2.734  18.096  19.784  0.5167 -0.3747  0.0087
 3310UDC     C136400   8.990   2.202   7.396  0.6214  0.2983 -0.6069
 3310UDC     C236401   9.128   2.142   7.421 -0.2857 -0.5921 -0.6618
 3310UDC     C336402   9.127   1.990   7.410  0.4322 -0.5895  0.1417
 3310UDC     C436403   9.246   1.911   7.460  0.0044 -0.4420  0.3565
 3310UDC     C536404   9.221   1.759   7.455 -0.2659 -0.0457  0.1482
 3310UDC     C636405   9.310   1.648   7.526  0.5481  0.0440  0.2969
 3310UDC     C736406   9.228   1.520   7.537 -0.7100  0.5348 -0.0950
 3310UDC     C836407   9.275   1.434   7.656 -0.2603  0.8490 -0.3741
 3310UDC     C936408   9.178   1.317   7.706 -0.7241 -0.4717  0.2658
 3310UDC    C1036409   9.234   1.211   7.800  0.4305  0.8704  0.1420
 3310UDC    C1136410   9.225   1.270   7.942  0.8895 -0.0145 -0.3455
 3311UDC     C136411  19.643  16.539  14.054  0.7932  0.1443  1.0283
 3311UDC     C236412  19.573  16.524  13.917 -0.3408 -0.1001  0.5077
 3311UDC     C336413  19.435  16.578  13.958 -0.1178 -0.3398  0.8692
 3311UDC     C436414  19.343  16.608  13.836  0.2828  0.4342  1.4674
 3311UDC     C536415  19.244  16.723  13.853  0.3331 -0.8382 -0.6394
 3311UDC     C636416  19.211  16.800  13.727  0.5167  0.1838  0.1584
 3311UDC     C736417  19.060  16.774  13.693  0.0017 -0.5273 -0.2290
 3311UDC     C836418  18.947  16.804  13.794 -0.1594  0.3415 -0.3168
 3311UDC     C936419  18.813  16.761  13.735 -0.1777 -0.0657  0.6398
 3311UDC    C1036420  18.698  16.862  13.786  0.4532 -0.3207  0.3573
 3311UDC    C1136421  18.644  16.858  13.928  0.6759 -0.4262 -0.0302
 3312UDC     C136422   6.556  10.676  12.501  0.0131  0.9123  0.4049
 3312UDC     C236423   6.470  10.555  12.467  0.4499  0.5828 -0.9180
 3312UDC     C336424   6.458  10.514  12.316 -0.6437  0.0329  0.1083
 3312UDC     C436425   6.399  10.373  12.302  0.5269  0.1347  0.5513
 3312UDC     C536426   6.418  10.314  12.163 -0.0443  0.7271  0.0599
 3312UDC     C636427   6.363  10.172  12.138  0.0921  0.1126 -0.5180
 3312UDC     C736428   6.415  10.074  12.242  0.1921 -0.7607 -0.9566
 3312UDC     C836429   6.564  10.060  12.260 -0.0879  0.5837  0.1699
 3312UDC     C936430   6.611   9.964  12.373  0.3614  0.6196  1.0064
 3312UDC    C1036431   6.765   9.956  12.393  0.0350  0.3999  0.3921
 3312UDC    C1136432   6.826   9.883  12.273  0.7777  0.1000 -0.2938
 3313UDC     C136433   6.381   2.582  12.966 -0.7194  0.3629  0.5378
 3313UDC     C236434   6.377   2.446  13.043  0.2747 -0.0702 -0.8554
 3313UDC     C336435   6.393   2.437  13.194 -0.9840 -0.0922 -0.1783
 3313UDC     C436436   6.371   2.295  13.255 -0.6155  0.5083  0.0386
 3313UDC     C536437   6.468   2.252  13.360  0.7725  0.1165  0.7255
 3313UDC     C636438   6.479   2.345  13.477  0.5372 -0.1887  0.2253
 3313UDC     C736439   6.609   2.356  13.560  0.5666  0.3239  0.6972
 3313UDC     C836440   6.740   2.403  13.486  0.3473  0.8706 -0.1466
 3313UDC     C936441   6.855   2.449  13.579 -0.0106 -0.0039  0.4288
 3313UDC    C1036442   6.960   2.339  13.626 -0.0966 -0.2457  0.4969
 3313UDC    C1136443   6.912   2.258  13.746 -0.5816 -0.6459 -0.1673
 3314UDC     C136444  16.468  15.607  11.726  0.1249  0.4552 -0.6796
 3314UDC     C236445  16.398  15.700  11.829  0.5345  1.2416  0.3034
 3314UDC     C336446  16.481  15.813  11.889  0.1671  0.1624 -0.0531
 3314UDC     C436447  16.411  15.857  12.015  1.2117 -0.7098 -0.4922
 3314UDC     C536448  16.269  15.900  11.974 -0.2455 -1.1640  1.3088
 3314UDC     C636449  16.262  16.022  11.875  1.2015 -0.2718 -1.3524
 3314UDC     C736450  16.156  16.120  11.940  0.4647 -0.1639 -0.2834
 3314UDC     C836451  16.174  16.146  12.090 -0.6337  0.0568 -0.3135
 3314UDC     C936452  16.246  16.281  12.094  0.1566 -1.0779  0.1088
 3314UDC    C1036453  16.249  16.343  12.241 -0.9355 -1.2026  0.5672
 3314UDC    C1136454  16.099  16.375  12.286  0.4628  1.3706  0.3243
 3315UDC     C136455   2.297   4.476  13.333  0.1082 -0.6062 -0.2169
 3315UDC     C236456   2.244   4.374  13.435 -0.1386 -0.1207 -0.0123
 3315UDC     C336457   2.170   4.256  13.375 -0.7879 -1.0723 -0.1000
 3315UDC     C436458   2.171   4.130  13.458  1.3613 -0.4982 -0.1058
 3315UDC     C536459   2.078   4.145  13.580  0.0855  0.4695 -0.5503
 3315UDC     C636460   2.016   4.013  13.626  1.1313 -0.2621 -0.1185
 3315UDC     C736461   2.107   3.895  13.601 -0.9907 -0.1337  0.5811
 3315UDC     C836462   2.037   3.768  13.560 -0.5145  0.3695 -1.1944
 3315UDC     C936463   1.956   3.751  13.431  0.9083  0.0824  0.0661
 3315UDC    C1036464   1.864   3.629  13.455  0.3950 -0.0470  0.6865
 3315UDC    C1136465   1.757   3.625  13.347  1.4614 -0.5145  0.8505
 3316UDC     C136466   4.445   6.917  13.279 -0.7970  1.3397  0.0416
 3316UDC     C236467   4.421   6.764  13.273  0.2181 -0.5723  0.4408
 3316UDC     C336468   4.274   6.723  13.233 -0.3671 -0.9201 -0.0279
 3316UDC     C436469   4.162   6.805  13.298  0.5786 -0.4767 -0.7951
 3316UDC     C536470   4.082   6.728  13.397 -0.1558  0.9177 -0.2870
 3316UDC     C636471   4.009   6.827  13.489 -0.0538 -0.6274 -1.2071
 3316UDC     C736472   4.091   6.865  13.615  0.4037  0.4941 -0.6709
 3316UDC     C836473   4.087   6.997  13.678 -0.8755 -0.7843 -0.3463
 3316UDC     C936474   3.953   7.047  13.739 -0.3056 -0.2152 -0.2340
 3316UDC    C1036475   3.992   7.179  13.795  1.8339  0.4485 -0.6635
 3316UDC    C1136476   4.041   7.302  13.711  1.1433  1.4900 -0.2008
 3317UDC     C136477   8.486  13.006  10.026 -0.4822  0.0797 -1.3978
 3317UDC     C236478   8.334  12.982  10.041 -0.1938 -0.8224 -0.5841
 3317UDC     C336479   8.254  13.084   9.960 -0.9494  0.7411  0.1069
 3317UDC     C436480   8.118  13.023   9.920 -0.3126  0.1150 -1.1742
 3317UDC     C536481   8.050  12.967  10.047 -1.2272 -0.2014 -0.0364
 3317UDC     C636482   7.903  12.915  10.046 -0.4258 -0.6710 -0.3966
 3317UDC     C736483   7.832  12.897  10.182  0.4023  0.5220  0.0437
 3317UDC     C836484   7.821  12.760  10.245  0.3087  0.3359  0.5184
 3317UDC     C936485   7.782  12.764  10.393  1.1307 -0.0421 -0.2542
 3317UDC    C1036486   7.885  12.844  10.475  0.3367 -1.1589  0.5680
 3317UDC    C1136487   7.838  12.839  10.621  1.0260 -0.3101  0.2625
 3318UDC     C136488  11.216  15.105   4.089  0.5129 -0.0485 -0.3982
 3318UDC     C236489  11.163  15.248   4.100 -0.0546  0.9132 -0.3532
 3318UDC     C336490  11.168  15.312   3.966 -0.8640  0.4303  0.6827
 3318UDC     C436491  11.138  15.454   3.984  0.1102 -0.2655 -0.5272
 3318UDC     C536492  11.153  15.521   3.856  0.1350  0.3852  0.5459
 3318UDC     C636493  11.033  15.483   3.755 -0.1060 -0.7535  0.2184
 3318UDC     C736494  11.049  15.557   3.620 -0.6254 -0.3559 -0.0170
 3318UDC     C836495  10.939  15.524   3.512 -0.1266  0.4380  0.5402
 3318UDC     C936496  10.797  15.542   3.568 -0.4172 -0.8654 -0.5598
 3318UDC    C1036497  10.699  15.507   3.459  0.8155 -0.7191  0.5586
 3318UDC    C1136498  10.714  15.365   3.408 -0.3211 -0.8449 -0.6264
 3319UDC     C136499   5.996   6.147  18.880  0.2726 -1.2241  0.8514
 3319UDC     C236500   5.915   6.101  19.002  0.3053  0.5714 -0.3868
 3319UDC     C336501   5.947   5.956  19.053 -0.2473 -0.6727  0.1295
 3319UDC     C436502   5.878   5.921  19.186  0.1456 -0.8121  0.4372
 3319UDC     C536503   5.956   5.808  19.260 -0.7310  0.9573  0.6124
 3319UDC     C636504   5.956   5.669  19.182  0.0767 -0.7570  0.4271
 3319UDC     C736505   5.819   5.599  19.213 -0.6949  0.1445  0.1764
 3319UDC     C836506   5.740   5.647  19.337 -0.4725 -0.3637 -0.3630
 3319UDC     C936507   5.653   5.546  19.409 -0.8840  0.2152  0.7613
 3319UDC    C1036508   5.658   5.561  19.564  0.4875 -0.3687  0.6099
 3319UDC    C1136509   5.542   5.633  19.636  0.1850 -0.4238  0.2419
 3320UDC     C136510   1.243   3.578   1.646 -0.1396 -0.6468  0.5488
 3320UDC     C236511   1.213   3.586   1.797  0.7211 -0.0259 -0.1509
 3320UDC     C336512   1.326   3.552   1.891  0.1616 -0.0032 -0.0569
 3320UDC     C436513   1.331   3.593   2.039 -0.0979 -0.7046 -0.1341
 3320UDC     C536514   1.319   3.744   2.074  1.2425  0.3446 -0.8482
 3320UDC     C636515   1.366   3.743   2.224 -0.1599 -0.3820  0.2416
 3320UDC     C736516   1.363   3.882   2.272  0.7773  0.0982  0.0674
 3320UDC     C836517   1.450   3.901   2.402 -0.0407 -0.0275  0.1845
 3320UDC     C936518   1.436   3.785   2.508 -0.6129  0.0265  0.2759
 3320UDC    C1036519   1.524   3.813   2.638  0.5435 -0.4422 -0.2565
 3320UDC    C1136520   1.432   3.856   2.753 -0.4832  0.0863 -0.1347
 3321UDC     C136521   0.045  11.496  11.239  0.0942 -0.2095 -0.0018
 3321UDC     C236522   0.099  11.480  11.378  0.0909 -0.6723  0.0196
 3321UDC     C336523   0.167  11.347  11.387  0.2232  0.0083 -0.4074
 3321UDC     C436524   0.305  11.361  11.455  0.3648  0.0617  0.4391
 3321UDC     C536525   0.363  11.221  11.478 -1.4457 -0.1051 -0.0693
 3321UDC     C636526   0.515  11.199  11.456 -0.6076  0.3168 -0.5074
 3321UDC     C736527   0.626  11.274  11.532 -0.7817 -1.2749 -0.0157
 3321UDC     C836528   0.775  11.218  11.512  0.4286  0.1524  0.0550
 3321UDC     C936529   0.861  11.315  11.588 -0.8890 -0.4564  0.5776
 3321UDC    C1036530   0.798  11.448  11.633  0.6161  0.4279 -0.1831
 3321UDC    C1136531   0.910  11.548  11.678 -0.7810 -0.4968  0.3307
 3322UDC     C136532  14.997  13.712  11.172  0.3014  0.0421  0.0575
 3322UDC     C236533  15.103  13.646  11.084  0.9941  0.3900  0.4118
 3322UDC     C336534  15.085  13.491  11.080 -0.1469 -0.4324  0.2784
 3322UDC     C436535  15.108  13.416  11.213 -0.1519  0.3443  0.0533
 3322UDC     C536536  15.108  13.254  11.197 -0.7133 -1.1035  0.5859
 3322UDC     C636537  15.149  13.168  11.322  0.6254  0.9192  0.1804
 3322UDC     C736538  15.244  13.052  11.307  0.3948 -0.5726  0.1673
 3322UDC     C836539  15.371  13.089  11.231 -1.1089 -1.1168 -0.8173
 3322UDC     C936540  15.446  12.971  11.160  0.4185 -0.7811  0.8885
 3322UDC    C1036541  15.535  13.003  11.033 -0.2821  0.1297 -0.0515
 3322UDC    C1136542  15.650  13.104  11.082 -0.9413 -0.2445  1.0238
 3323UDC     C136543  17.742  10.200   9.325  0.4044 -0.2355 -0.9614
 3323UDC     C236544  17.715  10.341   9.390  0.5072 -0.0910  0.7477
 3323UDC     C336545  17.650  10.339   9.527  0.3220 -0.1263  0.9248
 3323UDC     C436546  17.499  10.310   9.511  0.6748 -0.6148 -0.1557
 3323UDC     C536547  17.433  10.306   9.649  0.7009  0.2017  0.1844
 3323UDC     C636548  17.285  10.289   9.618 -0.9113 -0.4783 -0.8146
 3323UDC     C736549  17.210  10.407   9.554 -0.5576 -0.3382 -0.6449
 3323UDC     C836550  17.074  10.380   9.505 -0.0301  0.5601 -0.2584
 3323UDC     C936551  17.025  10.450   9.376 -0.4477  0.4394  0.0719
 3323UDC    C1036552  16.873  10.462   9.372  0.5986  0.1764  0.3258
 3323UDC    C1136553  16.807  10.549   9.267  0.2409  1.0388 -0.2289
 3324UDC     C136554  10.112   8.143  11.468 -0.7150  0.6670 -0.4619
 3324UDC     C236555  10.035   8.113  11.336  0.5825 -1.2164  0.4915
 3324UDC     C336556  10.144   8.135  11.225  0.3799 -0.4698 -0.9713
 3324UDC     C436557  10.102   8.066  11.094 -1.1558  0.9015  0.2226
 3324UDC     C536558  10.188   8.087  10.973  0.3309  0.3201 -0.6387
 3324UDC     C636559  10.169   8.239  10.938 -0.6392 -0.8004  0.4595
 3324UDC     C736560  10.268   8.280  10.828  1.3581 -0.6827 -1.0525
 3324UDC     C836561  10.227   8.417  10.778 -0.2067  0.2820 -0.2050
 3324UDC     C936562  10.323   8.475  10.675 -0.5136 -0.9788  0.5578
 3324UDC    C1036563  10.250   8.573  10.584  0.2001 -0.1523  0.7929
 3324UDC    C1136564  10.166   8.685  10.655  0.6507  0.4560 -0.0084
 3325UDC     C136565   5.283   9.413   3.444  0.2228 -0.7456 -0.8128
 3325UDC     C236566   5.394   9.318   3.452  0.3095  0.1285 -0.9749
 3325UDC     C336567   5.402   9.202   3.556  0.9949 -0.1626 -0.8271
 3325UDC     C436568   5.281   9.104   3.537 -1.0204  0.2003  0.5494
 3325UDC     C536569   5.310   8.960   3.584 -0.3227 -0.8767  0.6592
 3325UDC     C636570   5.334   8.932   3.730 -1.5078 -0.6698 -0.0828
 3325UDC     C736571   5.205   8.876   3.790 -0.5143 -0.3339 -0.3184
 3325UDC     C836572   5.232   8.866   3.947  0.4114 -0.1628 -0.6276
 3325UDC     C936573   5.134   8.796   4.041  0.7102  0.6853 -0.0568
 3325UDC    C1036574   5.007   8.878   4.064  0.4198 -0.2888  0.9078
 3325UDC    C1136575   4.899   8.814   4.146 -0.6480 -0.0867 -0.0892
 3326UDC     C136576  19.375  17.011   3.886 -0.1814 -0.1501 -0.9268
 3326UDC     C236577  19.396  16.960   3.744  0.6204  0.2260  0.2354
 3326UDC     C336578  19.311  16.998   3.618  1.4305  1.1620  0.0573
 3326UDC     C436579  19.328  16.928   3.484 -0.4808  0.4814  0.0979
 3326UDC     C536580  19.265  16.991   3.364  1.0953  0.1126  0.4015
 3326UDC     C636581  19.296  16.907   3.238 -0.3549 -0.5347 -0.3860
 3326UDC     C736582  19.447  16.922   3.211  0.0122 -0.4519 -0.5913
 3326UDC     C836583  19.513  16.839   3.091  0.1144  0.1838 -0.7386
 3326UDC     C936584  19.537  16.698   3.124  0.1122  0.5698 -0.8764
 3326UDC    C1036585  19.676  16.658   3.066  0.4549 -0.0800 -0.5688
 3326UDC    C1136586  19.722  16.534   3.143  0.2865  0.4925 -0.5055
 3327UDC     C136587  10.268  14.593   6.246 -0.2216  0.3286 -1.2608
 3327UDC     C236588  10.333  14.463   6.279  0.5896  0.8157 -0.3760
 3327UDC     C336589  10.263  14.335   6.225  0.3260  0.9905  0.5532
 3327UDC     C436590  10.354  14.217   6.274 -0.4736  0.2053  1.2971
 3327UDC     C536591  10.497  14.231   6.216 -0.6060 -0.4384  0.3925
 3327UDC     C636592  10.613  14.239   6.318 -0.1887 -0.5699  0.1836
 3327UDC     C736593  10.743  14.242   6.239  0.1415  0.1113 -0.4060
 3327UDC     C836594  10.857  14.185   6.330  1.0523 -0.2861 -0.3743
 3327UDC     C936595  10.964  14.126   6.237 -0.0777  0.1499  0.2929
 3327UDC    C1036596  11.093  14.065   6.286  0.1635 -0.1712  0.0484
 3327UDC    C1136597  11.193  14.030   6.170  0.2980 -0.6501  0.2305
 3328UDC     C136598  17.014  14.897  15.172 -0.7135  0.0398 -0.0807
 3328UDC     C236599  17.050  14.759  15.234 -0.3130 -0.7722  0.5704
 3328UDC     C336600  17.091  14.754  15.374 -0.4849  0.4650 -0.6767
 3328UDC     C436601  17.238  14.776  15.435  0.8284 -0.9571 -0.7731
 3328UDC     C536602  17.205  14.811  15.580 -0.1862 -0.8814 -1.0913
 3328UDC     C636603  17.286  14.742  15.691 -0.7240  0.5927  0.1728
 3328UDC     C736604  17.253  14.772  15.836 -0.0976  0.4902  0.4702
 3328UDC     C836605  17.360  14.730  15.933 -0.5701  0.4515 -0.3425
 3328UDC     C936606  17.417  14.594  15.925 -0.0908  0.6492  0.5154
 3328UDC    C1036607  17.549  14.579  16.004 -0.3533  1.1651  0.4868
 3328UDC    C1136608  17.650  14.685  15.976  0.7317  0.3329  0.3253
 3329UDC     C136609   9.122   1.222   9.032  0.8615 -0.3101 -0.3320
 3329UDC     C236610   9.187   1.292   9.154  0.5062 -0.4567 -0.4795
 3329UDC     C336611   9.343   1.314   9.138  0.6237 -0.0092  0.3463
 3329UDC     C436612   9.351   1.421   9.028  0.0870 -0.3637 -0.1087
 3329UDC     C536613   9.280   1.553   9.072  0.3712  0.3234 -0.0306
 3329UDC     C636614   9.318   1.679   8.999  0.3921  1.1399  0.9227
 3329UDC     C736615   9.215   1.774   8.931  1.4280 -0.3249  0.9487
 3329UDC     C836616   9.242   1.806   8.780  0.0737 -0.8069  1.1883
 3329UDC     C936617   9.204   1.937   8.717 -0.3627 -1.0758 -0.5209
 3329UDC    C1036618   9.274   1.981   8.591 -0.7008  0.0918  0.3551
 3329UDC    C1136619   9.369   1.873   8.543  0.2266  1.3285 -0.5763
 3330UDC     C136620   4.456  13.879   2.786 -0.7251 -1.0558  0.3291
 3330UDC     C236621   4.332  13.861   2.880 -0.9838  1.0785 -0.0948
 3330UDC     C336622   4.206  13.953   2.869 -0.3906  1.2632  0.1818
 3330UDC     C436623   4.101  13.930   2.761 -0.4822 -0.0083  0.8198
 3330UDC     C536624   4.000  14.043   2.740  0.0130  0.3761  0.2540
 3330UDC     C636625   3.947  14.002   2.597  0.0140 -0.3038 -0.5452
 3330UDC     C736626   3.816  14.073   2.588 -0.4078  0.2836  0.0955
 3330UDC     C836627   3.707  13.970   2.542 -0.0418 -0.4922  0.2115
 3330UDC     C936628   3.557  14.011   2.578 -0.1664 -0.6605  0.6099
 3330UDC    C1036629   3.555  14.018   2.730 -0.1496 -0.4276  0.5420
 3330UDC    C1136630   3.411  14.081   2.760  1.2276  0.7592  0.8873
 3331UDC     C136631  14.094  11.730   4.974 -0.0467 -0.7784 -0.3878
 3331UDC     C236632  14.116  11.796   4.843 -0.2417 -0.3475  0.6122
 3331UDC     C336633  14.156  11.708   4.726  0.2607 -0.4021 -0.0569
 3331UDC     C436634  14.289  11.636   4.733 -0.0289 -1.3286 -0.1508
 3331UDC     C536635  14.428  11.683   4.677  0.8476 -0.3386 -0.3104
 3331UDC     C636636  14.518  11.599   4.595  1.4351  0.7551  0.3145
 3331UDC     C736637  14.658  11.637   4.545 -0.1348  1.3402  0.1290
 3331UDC     C836638  14.663  11.770   4.465 -0.2733  0.2006  0.6141
 3331UDC     C936639  14.598  11.747   4.325  0.1014 -0.2317 -0.1359
 3331UDC    C1036640  14.448  11.777   4.307 -0.3569  0.0929  0.7117
 3331UDC    C1136641  14.395  11.921   4.300 -0.0951 -0.2551 -1.6256
 3332UDC     C136642   0.517   6.425  11.084 -0.2665 -1.1163  0.6514
 3332UDC     C236643   0.548   6.576  11.102  0.4098 -0.9396 -0.0604
 3332UDC     C336644   0.687   6.599  11.052 -1.1563 -1.9439  0.1636
 3332UDC     C436645   0.756   6.737  11.087  0.0298  0.5603  0.3245
 3332UDC     C536646   0.899   6.740  11.025  0.0747 -0.8666  0.3570
 3332UDC     C636647   0.997   6.863  11.052 -0.4361 -0.2955  0.2845
 3332UDC     C736648   1.110   6.868  10.952  0.1622  0.1601 -1.8572
 3332UDC     C836649   1.177   7.006  10.919  0.1608 -0.7586  0.2029
 3332UDC     C936650   1.272   7.048  11.034 -0.2784 -0.4660  0.1702
 3332UDC    C1036651   1.335   7.183  11.015  1.0483 -0.4134  0.8044
 3332UDC    C1136652   1.424   7.225  11.133  0.2507 -1.0211  0.6300
 3333UDC     C136653  12.882   4.964  17.738  0.8519  0.2184 -0.2845
 3333UDC     C236654  13.002   4.937  17.635  0.4647 -0.0172  1.0021
 3333UDC     C336655  12.992   4.793  17.577 -0.2413  0.2937 -1.0922
 3333UDC     C436656  13.015   4.767  17.426  0.3895 -0.1313 -0.7749
 3333UDC     C536657  12.975   4.621  17.373 -0.2775  0.2738 -0.3154
 3333UDC     C636658  13.043   4.565  17.245  0.0962 -1.6720 -0.8427
 3333UDC     C736659  12.966   4.453  17.168 -0.1405 -0.4041 -0.0355
 3333UDC     C836660  12.855   4.508  17.062 -1.1051  0.5896  0.7111
 3333UDC     C936661  12.761   4.415  16.995  0.1179  0.7702 -1.0546
 3333UDC    C1036662  12.682   4.441  16.870  1.1206 -0.6552 -0.1865
 3333UDC    C1136663  12.674   4.601  16.837  1.0273  1.1902  0.2376
 3334UDC     C136664  12.031  18.612  11.665 -0.1441 -0.0339 -0.3162
 3334UDC     C236665  12.148  18.571  11.760 -0.3885 -0.9561  0.2836
 3334UDC     C336666  12.256  18.683  11.733 -0.5087 -0.5742  0.1246
 3334UDC     C436667  12.304  18.697  11.588  0.1829 -0.9190  0.6133
 3334UDC     C536668  12.406  18.809  11.556  0.3318  0.1205  0.8053
 3334UDC     C636669  12.421  18.847  11.405 -0.4975  1.5159 -0.4145
 3334UDC     C736670  12.419  18.997  11.375 -1.3235 -0.0540  0.9643
 3334UDC     C836671  12.476  19.047  11.245  0.3926  0.3825  1.3156
 3334UDC     C936672  12.415  19.162  11.168  0.5534 -0.9959 -0.3487
 3334UDC    C1036673  12.532  19.266  11.135 -0.0064 -0.4068 -0.2777
 3334UDC    C1136674  12.500  19.302  10.989 -0.2246 -0.2279  0.8990
 3335UDC     C136675  11.206  12.038   3.796 -0.6667 -0.0125  0.3665
 3335UDC     C236676  11.213  12.101   3.938  0.6232 -0.3671  0.4619
 3335UDC     C336677  11.353  12.140   3.963 -0.2097 -0.4781  0.1633
 3335UDC     C436678  11.396  12.245   3.863 -0.4381  0.6901 -0.7259
 3335UDC     C536679  11.514  12.339   3.892  0.2336  0.4377 -0.3142
 3335UDC     C636680  11.509  12.458   3.798  0.8990 -0.3568  0.0845
 3335UDC     C736681  11.379  12.552   3.795 -0.0743 -0.1311  0.8726
 3335UDC     C836682  11.406  12.688   3.736  0.0287  0.2267  0.3840
 3335UDC     C936683  11.461  12.798   3.832  0.5121 -0.7799  0.2496
 3335UDC    C1036684  11.596  12.849   3.788  0.0883 -0.1986  0.6356
 3335UDC    C1136685  11.589  12.928   3.658  0.7335 -1.5178  0.1083
 3336UDC     C136686   3.668  17.434  15.414 -0.1693  0.0910 -0.3056
 3336UDC     C236687   3.616  17.469  15.553 -1.1829 -0.0362  0.5549
 3336UDC     C336688   3.615  17.350  15.651  0.8629  0.6037 -0.5429
 3336UDC     C436689   3.514  17.380  15.766  0.4674  0.0689  0.5337
 3336UDC     C536690   3.514  17.261  15.876 -0.1843 -0.6605 -0.2540
 3336UDC     C636691   3.423  17.136  15.848 -0.3745 -0.3563 -0.2793
 3336UDC     C736692   3.358  17.077  15.973  0.5249  0.0762  0.6273
 3336UDC     C836693   3.262  16.977  15.924 -0.0599  1.1265  0.1247
 3336UDC     C936694   3.138  16.983  16.010  0.3250 -0.6197 -0.8414
 3336UDC    C1036695   3.019  16.882  15.984  0.0313  0.7894  0.2230
 3336UDC    C1136696   2.912  16.925  15.883 -0.5955  0.3319  0.8985
 3337UDC     C136697  14.205   6.742   6.953  0.7296 -1.1369 -0.6339
 3337UDC     C236698  14.220   6.891   6.933  0.0425 -0.9016 -0.3134
 3337UDC     C336699  14.150   6.928   6.796 -0.6099  0.1636  0.3449
 3337UDC     C436700  14.202   7.063   6.747  1.0637  0.6421 -0.3911
 3337UDC     C536701  14.142   7.161   6.642 -0.3871  0.4763 -0.0017
 3337UDC     C636702  14.232   7.170   6.521 -0.7940 -0.0903  0.7516
 3337UDC     C736703  14.255   7.039   6.439  0.5818 -0.4531 -0.3555
 3337UDC     C836704  14.294   7.038   6.291  0.3639 -1.4209 -0.0172
 3337UDC     C936705  14.245   6.933   6.189  0.2235  0.4221 -0.7622
 3337UDC    C1036706  14.245   6.965   6.035 -0.1534 -0.7104 -0.7525
 3337UDC    C1136707  14.181   7.097   6.001  0.3706 -0.4166  0.0995
 3338UDC     C136708   4.831  16.136   1.057 -0.4212  0.0183 -0.2150
 3338UDC     C236709   4.936  16.123   1.172  0.4466 -1.2405  0.0751
 3338UDC     C336710   4.920  16.211   1.300  0.0441  0.5997  0.3792
 3338UDC     C436711   4.961  16.135   1.419 -0.2192  0.0452  0.0668
 3338UDC     C536712   5.014  16.204   1.546  0.0174  0.7569 -0.3492
 3338UDC     C636713   5.116  16.307   1.507  0.2271 -0.0344 -1.2648
 3338UDC     C736714   5.259  16.243   1.490  0.2700 -0.8192 -0.9560
 3338UDC     C836715   5.372  16.324   1.429 -0.2368 -1.7255  0.8033
 3338UDC     C936716   5.459  16.399   1.534  0.1127  0.1006 -0.2205
 3338UDC    C1036717   5.410  16.539   1.577 -0.3113 -0.7886 -0.4461
 3338UDC    C1136718   5.504  16.601   1.685 -0.2185 -0.1175  0.6973
 3339UDC     C136719  19.081  14.496   3.055  0.0422 -0.4767 -0.0600
 3339UDC     C236720  18.992  14.618   3.074  0.2876  0.1203  0.5522
 3339UDC     C336721  18.965  14.684   2.937  0.4534  0.2706  0.8910
 3339UDC     C436722  18.862  14.607   2.848 -0.0672  0.0332 -0.0833
 3339UDC     C536723  18.730  14.574   2.922  0.0116  0.3735  1.5767
 3339UDC     C636724  18.618  14.524   2.826  0.8811  0.3254  0.1041
 3339UDC     C736725  18.508  14.464   2.916 -0.8031 -0.3881  1.0827
 3339UDC     C836726  18.401  14.411   2.825 -0.6547  0.8522  0.6957
 3339UDC     C936727  18.315  14.515   2.750  0.1936 -0.1411 -0.6763
 3339UDC    C1036728  18.236  14.489   2.629 -0.0692 -0.4351 -0.2632
 3339UDC    C1136729  18.110  14.403   2.635  0.4487 -0.4244  0.3210
 3340UDC     C136730  16.920  18.419   6.226 -0.1131  0.2043 -0.1367
 3340UDC     C236731  16.774  18.403   6.273  0.3094  0.9289 -1.1790
 3340UDC     C336732  16.735  18.252   6.265 -0.5351 -0.2230 -0.1718
 3340UDC     C436733  16.661  18.193   6.148 -0.8564 -0.7302  0.0216
 3340UDC     C536734  16.703  18.052   6.102 -0.5270  0.2986  0.4402
 3340UDC     C636735  16.589  17.966   6.047 -0.8504  0.2159  0.0742
 3340UDC     C736736  16.632  17.811   6.039  0.3502 -0.6474 -0.9599
 3340UDC     C836737  16.729  17.766   5.932  1.2050  0.7244  0.1673
 3340UDC     C936738  16.801  17.636   5.967 -0.5878 -0.2461 -0.1477
 3340UDC    C1036739  16.719  17.518   5.992  0.2627  0.3506 -0.9084
 3340UDC    C1136740  16.622  17.470   5.882  0.4289  0.2962  0.3578
 3341UDC     C136741   7.894  19.604  18.510  1.1507 -0.7983 -0.5920
 3341UDC     C236742   7.875  19.685  18.378 -0.3363 -0.1159 -0.4187
 3341UDC     C336743   7.970  19.653  18.267 -0.4254  0.5781 -0.7104
 3341UDC     C436744   7.933  19.738  18.144  0.7480 -0.1856 -0.1677
 3341UDC     C536745   8.032  19.687  18.034  0.5017 -0.0518 -1.3029
 3341UDC     C636746   8.034  19.765  17.900  0.3102  0.7755 -0.2190
 3341UDC     C736747   8.101  19.901  17.906 -0.1734  0.3270 -0.0749
 3341UDC     C836748   8.249  19.862  17.943  0.2391  0.6156  0.0222
 3341UDC     C936749   8.342  19.970  17.904  0.9858  0.1944  1.0760
 3341UDC    C1036750   8.351  19.991  17.746  0.8773 -0.1684  0.4705
 3341UDC    C1136751   8.337  19.871  17.642  0.2420 -0.1202 -0.6850
 3342UDC     C136752  12.733   1.437  11.410  0.2308  0.0197  1.5262
 3342UDC     C236753  12.688   1.291  11.395 -0.3480  0.5882 -0.8511
 3342UDC     C336754  12.731   1.203  11.519 -1.3908  1.0232 -1.2674
 3342UDC     C436755  12.713   1.262  11.662 -0.5064  1.0874 -0.1531
 3342UDC     C536756  12.771   1.165  11.766  0.5801 -0.1340  0.5656
 3342UDC     C636757  12.824   1.225  11.905 -0.3470 -0.4865 -0.1724
 3342UDC     C736758  12.906   1.113  11.985  0.7476 -0.7595 -0.6387
 3342UDC     C836759  13.007   1.175  12.076  0.8927 -0.4179 -0.3466
 3342UDC     C936760  12.926   1.262  12.171 -1.0581 -0.2959  0.0847
 3342UDC    C1036761  13.035   1.329  12.260  1.1271 -0.4516  0.5079
 3342UDC    C1136762  12.982   1.367  12.399 -0.5701 -0.1810 -0.3850
 3343UDC     C136763   9.951  16.217  10.152 -0.5159  0.4967  0.1671
 3343UDC     C236764  10.091  16.153  10.182 -0.6029 -1.5831 -0.8712
 3343UDC     C336765  10.201  16.128  10.077  0.6509  0.3342  0.0668
 3343UDC     C436766  10.311  16.067  10.162  0.5852  0.3765 -0.2416
 3343UDC     C536767  10.368  16.172  10.257 -0.1338  0.9402  0.0235
 3343UDC     C636768  10.512  16.160  10.324 -0.8934  0.3049 -0.6854
 3343UDC     C736769  10.483  16.058  10.437  0.9092 -0.4146 -0.0598
 3343UDC     C836770  10.608  16.058  10.532  0.1516  0.5220 -0.8556
 3343UDC     C936771  10.682  15.920  10.504 -0.0006 -0.5920 -0.2428
 3343UDC    C1036772  10.786  15.930  10.619  0.1991  0.1580  0.3748
 3343UDC    C1136773  10.898  16.036  10.612 -0.2424  0.9738 -0.5807
 3344UDC     C136774   9.911  18.466  10.481  0.0056 -0.7003 -0.4014
 3344UDC     C236775   9.977  18.525  10.604 -0.1409  0.1926 -0.7165
 3344UDC     C336776  10.040  18.662  10.583 -0.2896  0.0592 -0.4484
 3344UDC     C436777  10.156  18.674  10.479  0.2094  0.6326 -0.1831
 3344UDC     C536778  10.205  18.818  10.442 -0.1423 -0.0093 -0.2298
 3344UDC     C636779  10.295  18.833  10.321 -0.1576  0.5342 -0.1527
 3344UDC     C736780  10.345  18.963  10.278 -0.5688  0.2192  0.4084
 3344UDC     C836781  10.477  19.003  10.335  0.3323 -0.0298 -0.2038
 3344UDC     C936782  10.524  19.138  10.284 -0.4483 -0.1735  0.0612
 3344UDC    C1036783  10.671  19.119  10.237 -0.6982  0.4588  0.6333
 3344UDC    C1136784  10.747  19.247  10.174  0.7859 -0.6754  1.0146
 3345UDC     C136785  18.277  10.112  15.709 -0.7882  0.0084 -1.1089
 3345UDC     C236786  18.388  10.104  15.817 -0.1536  0.5700 -0.3719
 3345UDC     C336787  18.362  10.217  15.925 -0.2837  0.7984 -0.6044
 3345UDC     C436788  18.478  10.250  16.021 -0.6092  0.1315 -0.1357
 3345UDC     C536789  18.435  10.343  16.138  0.2314  0.7874  0.3445
 3345UDC     C636790  18.403  10.493  16.133  0.3941  0.1548  0.3055
 3345UDC     C736791  18.543  10.556  16.124 -0.6229 -0.8127 -0.1142
 3345UDC     C836792  18.644  10.536  16.232 -0.0255 -0.3885 -1.1905
 3345UDC     C936793  18.763  10.630  16.204  0.7039 -0.0668  0.0598
 3345UDC    C1036794  18.835  10.642  16.335 -0.6330  0.1378 -0.1909
 3345UDC    C1136795  18.978  10.700  16.336 -0.1277 -0.3734 -0.2247
 3346UDC     C136796  16.434  15.062   5.692  0.1593  0.0684 -0.4788
 3346UDC     C236797  16.483  15.188   5.615  0.1853  0.4841  0.2464
 3346UDC     C336798  16.564  15.153   5.486  0.1484 -0.4741  0.2322
 3346UDC     C436799  16.555  15.272   5.386  1.1869 -1.6010 -0.3309
 3346UDC     C536800  16.546  15.276   5.228 -1.1517 -0.5009  1.1895
 3346UDC     C636801  16.468  15.398   5.170  0.8137  0.8765  1.2950
 3346UDC     C736802  16.319  15.362   5.160 -0.6011  0.1530  0.3406
 3346UDC     C836803  16.230  15.478   5.137  1.6393 -0.2304  0.8139
 3346UDC     C936804  16.091  15.414   5.148 -0.7948 -0.5229  0.3624
 3346UDC    C1036805  15.963  15.490   5.126 -0.1050 -0.4354  0.5827
 3346UDC    C1136806  15.843  15.406   5.166  0.3228  0.6331 -0.3806
 3347UDC     C136807   1.534  11.634  19.190  0.4586  0.1800 -1.0619
 3347UDC     C236808   1.623  11.642  19.325  0.5729 -0.9513  0.5764
 3347UDC     C336809   1.633  11.496  19.372  0.9949  0.5722  0.3115
 3347UDC     C436810   1.719  11.475  19.500  0.6879 -0.6832 -0.0838
 3347UDC     C536811   1.676  11.339  19.563 -0.5046 -0.0650  0.7701
 3347UDC     C636812   1.529  11.314  19.580  1.8396  0.3028  0.7031
 3347UDC     C736813   1.482  11.430  19.672 -0.3922  0.5151  0.4864
 3347UDC     C836814   1.334  11.468  19.661  0.3006 -0.6213  1.1473
 3347UDC     C936815   1.236  11.378  19.580  0.0256 -0.5775  0.5600
 3347UDC    C1036816   1.090  11.421  19.609  0.2418  0.3990 -0.1452
 3347UDC    C1136817   1.041  11.302  19.704  0.1306 -0.1470  0.3163
 3348UDC     C136818   2.979  17.612  19.255 -0.0583  0.3124 -0.7926
 3348UDC     C236819   3.087  17.586  19.152 -1.0679 -0.7464 -0.7839
 3348UDC     C336820   3.232  17.563  19.207  0.3869  0.2992 -0.3709
 3348UDC     C436821   3.307  17.539  19.078 -1.2362 -0.5289 -0.0553
 3348UDC     C536822   3.342  17.680  19.025 -0.5710  0.1495 -0.2467
 3348UDC     C636823   3.444  17.695  18.905  1.0218 -0.0562  0.3365
 3348UDC     C736824   3.594  17.670  18.928  0.9189 -0.8165  0.6018
 3348UDC     C836825   3.651  17.554  19.006 -0.2855  1.2777  0.8066
 3348UDC     C936826   3.804  17.550  19.014  0.8078  0.1440  0.2731
 3348UDC    C1036827   3.860  17.409  19.050 -0.9760  0.6625 -1.2326
 3348UDC    C1136828   3.794  17.342  18.929  0.4729 -1.0048 -0.4302
 3349UDC     C136829  11.736   6.487  16.035  0.6424 -0.4932  0.7714
 3349UDC     C236830  11.831   6.377  16.011  0.8606 -0.0347 -0.6760
 3349UDC     C336831  11.773   6.289  15.900 -0.1765  0.0814  1.0527
 3349UDC     C436832  11.778   6.363  15.762  0.6693  1.0962 -0.8948
 3349UDC     C536833  11.748   6.236  15.682  0.4795 -0.7537  0.6825
 3349UDC     C636834  11.611   6.168  15.700  0.0864  0.8804  0.5147
 3349UDC     C736835  11.600   6.034  15.619  0.0669  0.7794  0.3978
 3349UDC     C836836  11.663   6.045  15.478 -0.5178  0.2701  0.7621
 3349UDC     C936837  11.647   5.924  15.372 -0.1164  0.9929  0.3003
 3349UDC    C1036838  11.730   5.797  15.421  0.1184 -0.6908  0.1162
 3349UDC    C1136839  11.703   5.677  15.327 -0.4727  0.2849 -0.2609
 3350UDC     C136840   4.855   5.237  10.101  0.6637  0.8660 -0.3192
 3350UDC     C236841   4.782   5.244   9.963  0.3273 -0.0619 -0.2754
 3350UDC     C336842   4.637   5.256   9.991  0.6171 -0.2170  0.4396
 3350UDC     C436843   4.553   5.339   9.879 -0.2933  0.6143 -0.8682
 3350UDC     C536844   4.509   5.266   9.750  0.1610 -0.3604  0.2333
 3350UDC     C636845   4.393   5.167   9.739  0.5344  0.1196 -0.3069
 3350UDC     C736846   4.269   5.251   9.719 -0.2460 -0.1840  0.5921
 3350UDC     C836847   4.291   5.357   9.603  0.2889 -0.0504  0.4846
 3350UDC     C936848   4.161   5.423   9.539 -0.6950 -0.2922 -0.6549
 3350UDC    C1036849   4.087   5.533   9.622  0.3707 -0.5074 -0.3067
 3350UDC    C1136850   4.119   5.688   9.603 -0.0098  0.3955 -0.1995
 3351UDC     C136851   5.318   1.196   9.022 -0.0621 -0.8639 -0.5777
 3351UDC     C236852   5.441   1.118   8.959  0.1522  0.3465 -0.1226
 3351UDC     C336853   5.564   1.205   8.911  0.4817  0.0980  1.7991
 3351UDC     C436854   5.542   1.256   8.757 -0.3204  0.8743 -1.1580
 3351UDC     C536855   5.661   1.335   8.690  0.0889  0.5111  0.5065
 3351UDC     C636856   5.637   1.444   8.584  1.0841 -0.2929  0.3288
 3351UDC     C736857   5.614   1.374   8.446  0.1561  0.1943  0.4474
 3351UDC     C836858   5.631   1.484   8.338  1.0123  1.5220 -0.0438
 3351UDC     C936859   5.630   1.432   8.187 -0.2907 -0.7957 -0.2666
 3351UDC    C1036860   5.617   1.559   8.105 -1.0710  1.2181  0.4554
 3351UDC    C1136861   5.745   1.616   8.056 -0.7734 -0.7805  0.6213
 3352UDC     C136862   3.984   1.011  10.136 -0.2837  0.6850 -1.1834
 3352UDC     C236863   3.937   1.140  10.074 -0.5520 -0.2180  0.7617
 3352UDC     C336864   4.050   1.199   9.991  0.7746 -0.1956  0.3559
 3352UDC     C436865   4.140   1.092   9.919 -0.0775  0.3695  0.0391
 3352UDC     C536866   4.271   1.152   9.866  0.3445  1.6605  0.1640
 3352UDC     C636867   4.376   1.089   9.780 -0.5972  1.0444  0.2265
 3352UDC     C736868   4.487   1.195   9.737  0.0964 -0.3080  0.3499
 3352UDC     C836869   4.547   1.256   9.865 -0.8376  0.8101 -1.3116
 3352UDC     C936870   4.639   1.161   9.939 -0.7340  1.2788  0.2145
 3352UDC    C1036871   4.717   1.239  10.046  0.0451  0.5262 -0.4809
 3352UDC    C1136872   4.804   1.353   9.999 -0.3019  0.1946  0.3298
 3353UDC     C136873  13.084   9.903   4.971 -0.5883  0.5885  0.5018
 3353UDC     C236874  13.227   9.932   5.013 -0.9157  0.7020 -0.1247
 3353UDC     C336875  13.333   9.853   4.926  0.1601  0.5393  0.2954
 3353UDC     C436876  13.346   9.913   4.789 -0.1772 -1.3398  0.2340
 3353UDC     C536877  13.316   9.802   4.677  0.3569  0.7741 -1.0702
 3353UDC     C636878  13.279   9.860   4.539  2.1131 -0.7635  0.1485
 3353UDC     C736879  13.123   9.872   4.523 -0.5686 -0.1390  0.4493
 3353UDC     C836880  13.089   9.813   4.384 -0.3506  0.5241 -1.0672
 3353UDC     C936881  13.142   9.879   4.262  0.0532 -1.2378 -0.1597
 3353UDC    C1036882  13.056   9.835   4.135 -0.4106  0.3868 -0.8079
 3353UDC    C1136883  13.100   9.886   3.997 -1.4166 -0.7175  0.6060
 3354UDC     C136884  13.990  13.143   5.342 -1.1221  0.6454  0.6080
 3354UDC     C236885  13.880  13.048   5.385  0.3258  0.1203  0.2968
 3354UDC     C336886  13.773  13.048   5.271  0.1397  0.3472 -1.0683
 3354UDC     C436887  13.843  13.014   5.141  1.0743  1.2411  0.8427
 3354UDC     C536888  13.760  13.015   5.011 -0.2619  0.3077 -0.1197
 3354UDC     C636889  13.860  12.986   4.890 -0.2678  0.7643 -0.9706
 3354UDC     C736890  13.876  12.835   4.870 -0.5305  0.0093  0.1069
 3354UDC     C836891  13.772  12.770   4.782  0.4075 -0.2417  0.2190
 3354UDC     C936892  13.620  12.796   4.818  0.0715  0.6651 -0.0882
 3354UDC    C1036893  13.544  12.671   4.777 -0.0239 -0.3813  0.0679
 3354UDC    C1136894  13.398  12.685   4.821 -0.5555  1.3028  0.7668
 3355UDC     C136895  15.847   1.637   4.526 -0.7040  0.8646 -0.5055
 3355UDC     C236896  15.846   1.762   4.605  0.6723  0.4109 -0.6784
 3355UDC     C336897  15.822   1.893   4.526 -0.3401 -0.6770  1.1961
 3355UDC     C436898  15.688   1.892   4.466  0.3063 -1.0660  1.3568
 3355UDC     C536899  15.692   2.028   4.389 -0.0521 -0.7611  0.0912
 3355UDC     C636900  15.789   2.020   4.275 -1.1753 -0.5358  0.1080
 3355UDC     C736901  15.730   1.984   4.144  1.2344 -0.2316 -0.3249
 3355UDC     C836902  15.684   1.843   4.120 -0.3480  0.2641  0.1345
 3355UDC     C936903  15.597   1.823   3.994  0.8139  0.1389 -0.0010
 3355UDC    C1036904  15.586   1.676   3.968  1.3087 -0.5106 -0.2147
 3355UDC    C1136905  15.582   1.645   3.819 -0.2449  0.1567  0.5885
 3356UDC     C136906   2.396  17.450  11.129  0.9521 -0.8834  0.3022
 3356UDC     C236907   2.442  17.542  11.010  0.6313  0.3360 -1.1427
 3356UDC     C336908   2.545  17.464  10.932  0.0398  0.2748 -0.3852
 3356UDC     C436909   2.643  17.552  10.859 -0.6284 -0.2401 -1.0288
 3356UDC     C536910   2.728  17.471  10.760  0.9047  0.0877  0.1515
 3356UDC     C636911   2.840  17.552  10.691 -1.2317 -0.5212 -0.2652
 3356UDC     C736912   2.770  17.599  10.561 -0.7262  0.9264 -0.1674
 3356UDC     C836913   2.659  17.707  10.580 -0.3030 -0.0472 -0.6336
 3356UDC     C936914   2.653  17.773  10.439 -0.1670  0.0756 -1.2225
 3356UDC    C1036915   2.625  17.664  10.330 -0.6583 -1.9480  0.6614
 3356UDC    C1136916   2.637  17.710  10.186 -0.4303  0.7576 -1.0149
 3357UDC     C136917   0.924  13.715  19.494  0.0511  0.3816  0.6534
 3357UDC     C236918   0.797  13.631  19.478 -1.3506  0.2324  0.1075
 3357UDC     C336919   0.814  13.484  19.416  0.1717 -0.3522 -0.3650
 3357UDC     C436920   0.704  13.381  19.447 -0.3366  0.5451  0.2491
 3357UDC     C536921   0.732  13.235  19.408 -0.3227  0.5382  0.5937
 3357UDC     C636922   0.614  13.164  19.344 -0.6365  0.5221  0.2382
 3357UDC     C736923   0.579  13.225  19.206  0.0915 -0.8416 -0.6337
 3357UDC     C836924   0.495  13.126  19.125 -0.3913  0.4267 -1.0996
 3357UDC     C936925   0.396  13.068  19.223  1.0442 -0.1986  0.4438
 3357UDC    C1036926   0.307  12.956  19.163 -1.0844  0.9357  0.6829
 3357UDC    C1136927   0.260  12.850  19.255 -0.2775  0.1559 -0.0470
 3358UDC     C136928   9.002   0.403  14.654 -0.4059 -0.1903 -0.0411
 3358UDC     C236929   8.897   0.505  14.685  0.1169 -0.0453  0.2441
 3358UDC     C336930   8.941   0.645  14.734  0.1543  0.1146 -0.6565
 3358UDC     C436931   8.994   0.667  14.875  0.3521 -0.1074  1.0201
 3358UDC     C536932   9.032   0.816  14.897  0.3326 -0.3004 -0.2831
 3358UDC     C636933   9.145   0.833  15.002  0.3450  0.0640 -1.6654
 3358UDC     C736934   9.163   0.983  15.054  0.3451 -0.1589  0.7649
 3358UDC     C836935   9.220   1.103  14.980  0.7775 -0.0709 -0.5876
 3358UDC     C936936   9.231   1.218  15.079 -0.5181  0.1871  0.4656
 3358UDC    C1036937   9.308   1.354  15.062 -0.6841 -0.1798 -0.4263
 3358UDC    C1136938   9.292   1.447  15.188  0.3646 -0.2306  0.3582
 3359UDC     C136939   4.666  13.678  14.539  0.3573  0.1587 -0.1908
 3359UDC     C236940   4.666  13.739  14.681  0.6144 -0.1302  0.0100
 3359UDC     C336941   4.705  13.646  14.798  0.6326  0.2895  1.2006
 3359UDC     C436942   4.851  13.610  14.800 -0.1264 -0.4837  0.4299
 3359UDC     C536943   4.905  13.518  14.905 -0.2592  0.2744 -0.4152
 3359UDC     C636944   5.053  13.473  14.885 -0.0305 -1.2916  0.4375
 3359UDC     C736945   5.079  13.409  14.754 -0.0998  0.2085 -0.9585
 3359UDC     C836946   5.224  13.382  14.734  1.0055 -0.1161  0.1052
 3359UDC     C936947   5.286  13.319  14.604  0.8446  0.1906  0.7713
 3359UDC    C1036948   5.436  13.361  14.619  0.5390 -0.3748 -0.8648
 3359UDC    C1136949   5.450  13.519  14.602 -0.4376 -0.4235 -0.0055
 3360UDC     C136950  12.822   9.932  15.376 -0.3071 -0.1379  1.1273
 3360UDC     C236951  12.867   9.806  15.292 -0.6115 -0.2383 -0.7693
 3360UDC     C336952  12.810   9.675  15.354  0.0785 -0.4941  0.3445
 3360UDC     C436953  12.871   9.549  15.287  0.8490 -1.0448 -0.1089
 3360UDC     C536954  12.816   9.528  15.145 -1.0372 -0.9263 -0.0157
 3360UDC     C636955  12.672   9.510  15.164 -0.8660  0.9725 -1.0668
 3360UDC     C736956  12.622   9.382  15.098  0.3834 -0.1764 -0.1929
 3360UDC     C836957  12.685   9.244  15.113  0.7567  0.0697 -1.2177
 3360UDC     C936958  12.663   9.154  14.987  0.6543 -0.3300 -0.5954
 3360UDC    C1036959  12.765   9.178  14.874  0.0749 -0.0513  0.2265
 3360UDC    C1136960  12.908   9.149  14.910  0.0547  0.0595  0.3473
 3361UDC     C136961   0.553  10.734   1.458  0.2154  0.3294 -0.4117
 3361UDC     C236962   0.581  10.584   1.471 -0.3543 -1.0579 -0.2092
 3361UDC     C336963   0.714  10.537   1.419  0.2672 -1.3016  0.1351
 3361UDC     C436964   0.852  10.570   1.479 -0.3626  0.5812 -1.8303
 3361UDC     C536965   0.956  10.523   1.381 -0.2802  0.4186  0.6184
 3361UDC     C636966   1.089  10.585   1.434  0.4179  0.1130  0.3715
 3361UDC     C736967   1.207  10.482   1.455  0.7649 -0.0005  0.1102
 3361UDC     C836968   1.341  10.556   1.440  0.5077 -0.2713 -0.6303
 3361UDC     C936969   1.449  10.510   1.539  0.2727  0.7517 -1.5074
 3361UDC    C1036970   1.578  10.598   1.549  0.1060  0.1835 -0.1503
 3361UDC    C1136971   1.624  10.623   1.692 -0.0275  0.8104 -0.0254
 3362UDC     C136972  11.572   9.530   8.165 -0.8470 -0.0677 -0.0023
 3362UDC     C236973  11.470   9.651   8.165 -0.0571 -0.3799  0.7751
 3362UDC     C336974  11.388   9.661   8.293 -0.4858 -0.9821 -0.3050
 3362UDC     C436975  11.479   9.730   8.400 -0.7659  0.4646 -0.2728
 3362UDC     C536976  11.404   9.849   8.468 -0.2823  0.9464 -0.7243
 3362UDC     C636977  11.494   9.920   8.577  0.0789 -0.1268  0.9974
 3362UDC     C736978  11.426  10.006   8.684 -0.6702 -0.2553 -0.6034
 3362UDC     C836979  11.533  10.064   8.784  0.6001  0.3636 -0.9703
 3362UDC     C936980  11.506  10.164   8.901  0.4907 -0.3279  0.0841
 3362UDC    C1036981  11.461  10.300   8.833 -0.1946  0.3110 -0.5363
 3362UDC    C1136982  11.373  10.373   8.930  0.8420 -0.5820  0.3721
 3363UDC     C136983   4.335   7.381  16.117 -0.6162  0.2824 -0.2964
 3363UDC     C236984   4.445   7.339  16.217 -0.5795 -0.1994 -0.6248
 3363UDC     C336985   4.512   7.198  16.186  0.5480  0.6358 -0.1148
 3363UDC     C436986   4.654   7.213  16.211 -1.0681  0.0736  0.0399
 3363UDC     C536987   4.738   7.266  16.087  0.8439  0.2000 -0.4143
 3363UDC     C636988   4.820   7.396  16.103  1.4363 -0.7540 -0.3686
 3363UDC     C736989   4.895   7.450  15.979  1.1205 -0.2076  0.2123
 3363UDC     C836990   4.923   7.605  15.967  0.4549 -0.5430  0.0430
 3363UDC     C936991   4.793   7.696  15.964 -0.5118 -0.1415  0.3665
 3363UDC    C1036992   4.846   7.834  15.929  0.7636 -0.2296 -0.0009
 3363UDC    C1136993   4.916   7.835  15.793  0.1272 -0.2619 -1.0369
 3364UDC     C136994   7.039  11.616  15.997 -0.4952  1.1296 -0.6257
 3364UDC     C236995   6.955  11.740  16.014  0.8319 -1.0277  0.4204
 3364UDC     C336996   6.933  11.812  15.882 -0.6087  0.0123  0.6540
 3364UDC     C436997   6.850  11.934  15.911  0.3247 -0.2335  0.4454
 3364UDC     C536998   6.718  11.905  15.986 -0.4068  0.0886 -0.2022
 3364UDC     C636999   6.694  12.024  16.076  0.2602 -1.7136  0.2746
 3364UDC     C737000   6.596  12.003  16.193  0.1925 -0.0033 -0.6202
 3364UDC     C837001   6.557  12.114  16.301 -0.8081 -0.0751 -0.0575
 3364UDC     C937002   6.509  12.242  16.234  0.8803  0.4024 -0.4426
 3364UDC    C1037003   6.505  12.361  16.328  0.0619 -0.4859  0.5590
 3364UDC    C1137004   6.356  12.384  16.355  1.0566 -0.0974 -0.5379
 3365UDC     C137005   2.480  18.742  13.386  0.8632  0.1257 -0.2560
 3365UDC     C237006   2.599  18.645  13.388  0.1359  0.9157  0.0605
 3365UDC     C337007   2.704  18.668  13.271  0.2885 -1.2069 -0.7758
 3365UDC     C437008   2.646  18.635  13.129 -0.9882  0.0011  0.0328
 3365UDC     C537009   2.674  18.491  13.088 -0.7310 -0.6885  0.1848
 3365UDC     C637010   2.609  18.456  12.950  0.6888 -1.4553  0.8620
 3365UDC     C737011   2.640  18.309  12.905 -0.8681  0.7016 -0.7785
 3365UDC     C837012   2.578  18.263  12.775 -0.7851  1.2064  0.0607
 3365UDC     C937013   2.598  18.107  12.774  0.5807 -0.0658  0.7054
 3365UDC    C1037014   2.641  18.048  12.639  0.0180 -1.1016 -0.3492
 3365UDC    C1137015   2.697  17.905  12.664 -0.9125  1.2729  0.9778
 3366UDC     C137016  19.895   3.084  18.328  0.5244 -0.5644  0.8853
 3366UDC     C237017  19.984   2.970  18.386  0.0827 -0.0823 -0.2741
 3366UDC     C337018  20.125   2.948  18.321 -0.1290  0.4619  0.7280
 3366UDC     C437019  20.089   2.867  18.187  0.1672 -1.3657 -0.3759
 3366UDC     C537020  20.081   2.721  18.213  0.1775  0.6564  1.3009
 3366UDC     C637021  20.215   2.639  18.239  1.4466 -0.6075  0.3236
 3366UDC     C737022  20.204   2.487  18.234  0.5815 -1.9382  0.7540
 3366UDC     C837023  20.294   2.410  18.337 -0.4009  0.8717  0.9826
 3366UDC     C937024  20.281   2.251  18.334  0.8128  0.3287  0.5774
 3366UDC    C1037025  20.286   2.202  18.483 -1.2441  0.3383  0.1630
 3366UDC    C1137026  20.422   2.204  18.551 -0.5627 -1.1250 -0.1780
 3367UDC     C137027  11.997  15.438   3.503  0.5817 -0.4088  0.9507
 3367UDC     C237028  11.992  15.425   3.655  0.4213  0.0011 -0.7094
 3367UDC     C337029  11.991  15.559   3.732  0.1498  0.4939 -0.3126
 3367UDC     C437030  11.948  15.560   3.883  0.4301  0.0679  0.2743
 3367UDC     C537031  12.042  15.632   3.982 -0.1328  0.2099  1.0074
 3367UDC     C637032  12.038  15.569   4.122  0.6503 -0.6758 -0.6246
 3367UDC     C737033  12.106  15.657   4.226 -0.7469  0.7341  0.1668
 3367UDC     C837034  12.090  15.620   4.381  0.0503 -0.5598 -0.3479
 3367UDC     C937035  12.098  15.755   4.457  1.0752  0.6586 -0.8036
 3367UDC    C1037036  12.066  15.741   4.603 -0.9808  0.1375 -0.3944
 3367UDC    C1137037  12.058  15.881   4.674 -0.0685  0.6977  0.0019
 3368UDC     C137038  19.357   8.032  19.984 -0.7668 -0.1752  0.8490
 3368UDC     C237039  19.412   8.071  20.125  0.1905  0.7613  0.3366
 3368UDC     C337040  19.557   8.037  20.157  0.1150 -0.6236  0.1177
 3368UDC     C437041  19.663   8.114  20.078 -0.3681  0.0221 -0.7065
 3368UDC     C537042  19.623   8.267  20.080 -0.3410 -0.4409 -0.6111
 3368UDC     C637043  19.727   8.372  20.018  0.6197 -0.4172  0.3445
 3368UDC     C737044  19.671   8.523  20.023 -0.0451  0.0135  0.5292
 3368UDC     C837045  19.610   8.567  19.895  0.3028 -0.2903  0.2157
 3368UDC     C937046  19.682   8.515  19.770 -0.0085 -0.5021 -0.8152
 3368UDC    C1037047  19.586   8.520  19.649  0.4349  0.5964  0.5477
 3368UDC    C1137048  19.506   8.386  19.652 -0.2388  0.3832 -0.0792
 3369UDC     C137049   1.325  16.712   3.833  0.5055 -0.5558  0.0798
 3369UDC     C237050   1.378  16.584   3.891 -0.9182 -0.1175  0.3161
 3369UDC     C337051   1.524  16.596   3.918 -0.4759  1.5122 -0.3195
 3369UDC     C437052   1.594  16.463   3.901  0.1889  0.1676  0.1887
 3369UDC     C537053   1.730  16.430   3.969 -0.1709  0.1786 -0.7424
 3369UDC     C637054   1.739  16.285   4.008 -1.3215  0.5362  0.0743
 3369UDC     C737055   1.676  16.266   4.144  1.3334 -0.5762  0.4814
 3369UDC     C837056   1.764  16.229   4.260 -1.3727  0.4718 -0.5682
 3369UDC     C937057   1.697  16.226   4.395  0.3400  0.7935 -0.2993
 3369UDC    C1037058   1.587  16.116   4.410  0.0238  0.2895  0.2985
 3369UDC    C1137059   1.437  16.169   4.390 -0.2861  0.8387  1.1613
 3370UDC     C137060  12.085  10.465  13.321  0.7391 -0.9495 -0.4563
 3370UDC     C237061  12.033  10.574  13.419 -0.2430 -0.0410 -0.5158
 3370UDC     C337062  12.118  10.666  13.505  0.3005 -0.4401  0.2905
 3370UDC     C437063  12.038  10.774  13.577  0.0720  0.3590 -0.3430
 3370UDC     C537064  12.103  10.827  13.714  0.8386 -0.9709  0.9343
 3370UDC     C637065  12.139  10.718  13.814 -1.2461 -0.2931  0.3922
 3370UDC     C737066  12.214  10.777  13.941  0.3207 -0.7389 -0.1272
 3370UDC     C837067  12.221  10.669  14.052  0.1582  0.5509 -1.0000
 3370UDC     C937068  12.340  10.576  14.069  0.4499 -0.7854  1.3346
 3370UDC    C1037069  12.291  10.470  14.163 -0.2323 -0.0427 -0.4238
 3370UDC    C1137070  12.410  10.408  14.235 -0.0152 -0.6076 -0.8971
 3371UDC     C137071   6.386  18.548  15.353  0.2594  1.1309  0.1355
 3371UDC     C237072   6.354  18.595  15.497  0.6587  0.5236 -0.4387
 3371UDC     C337073   6.331  18.466  15.584 -0.0004 -0.4128  0.8555
 3371UDC     C437074   6.186  18.413  15.616 -0.9608  0.0802 -0.1057
 3371UDC     C537075   6.116  18.357  15.495 -0.8041 -0.0635 -0.0257
 3371UDC     C637076   5.969  18.331  15.507  0.3420  0.2462 -0.5126
 3371UDC     C737077   5.875  18.456  15.495 -0.7158 -1.3525  0.9087
 3371UDC     C837078   5.744  18.427  15.559  0.2539  1.0384 -0.7012
 3371UDC     C937079   5.743  18.449  15.712  0.1205  1.2015  0.5249
 3371UDC    C1037080   5.616  18.382  15.772 -0.5664  0.5220 -0.3040
 3371UDC    C1137081   5.629  18.406  15.925 -0.3056  0.7374 -0.4382
 3372UDC     C137082   1.397   0.385   8.599  0.2424  0.4695  0.4427
 3372UDC     C237083   1.256   0.367   8.541 -0.1444  0.9168  0.2443
 3372UDC     C337084   1.228   0.233   8.473 -0.7916  0.6027 -0.7939
 3372UDC     C437085   1.215   0.119   8.574 -0.4997 -0.2652  0.1656
 3372UDC     C537086   1.091   0.121   8.678 -0.8221  0.4086 -0.4089
 3372UDC     C637087   0.939   0.117   8.640 -0.8175  0.9523  0.2401
 3372UDC     C737088   0.897  -0.005   8.554  0.1694 -0.1110 -0.4006
 3372UDC     C837089   0.758  -0.004   8.480 -0.5591 -0.7133 -0.2693
 3372UDC     C937090   0.707  -0.140   8.422  0.2075 -0.3105  0.6285
 3372UDC    C1037091   0.797  -0.216   8.322  1.0074 -0.5718  0.1049
 3372UDC    C1137092   0.855  -0.119   8.225  0.2364 -0.6473 -0.2835
 3373UDC     C137093   7.576  15.473  16.182  0.0149  0.0027 -0.0149
 3373UDC     C237094   7.477  15.370  16.236 -0.1438 -0.0163  0.4545
 3373UDC     C337095   7.561  15.258  16.305 -0.3460 -0.3128 -1.6390
 3373UDC     C437096   7.492  15.172  16.419 -0.2241 -1.0762  0.0431
 3373UDC     C537097   7.526  15.024  16.431 -0.0293 -0.1369  1.4397
 3373UDC     C637098   7.533  14.953  16.294  1.4457 -0.6639 -0.2836
 3373UDC     C737099   7.592  14.801  16.296  0.5779 -0.5878 -0.7832
 3373UDC     C837100   7.502  14.683  16.336  0.3735 -1.4638 -0.0373
 3373UDC     C937101   7.474  14.660  16.488  0.7735  0.2077  0.6939
 3373UDC    C1037102   7.382  14.539  16.514 -0.5379  0.3587  0.5926
 3373UDC    C1137103   7.342  14.501  16.658  0.4947  0.4227 -1.2544
 3374UDC     C137104  11.224   4.423   5.137 -0.5505 -0.5931  0.5874
 3374UDC     C237105  11.348   4.325   5.138 -1.6243 -1.1804  0.7677
 3374UDC     C337106  11.457   4.332   5.261 -0.9773 -0.7927  1.2113
 3374UDC     C437107  11.601   4.358   5.214  0.7552 -0.6633  0.9413
 3374UDC     C537108  11.689   4.362   5.340  0.4178  0.0848  0.6182
 3374UDC     C637109  11.840   4.390   5.334  0.2103  1.5586  1.3319
 3374UDC     C737110  11.865   4.527   5.271 -0.5162 -0.3083  0.2666
 3374UDC     C837111  11.987   4.608   5.321 -0.5040  0.0463  0.5511
 3374UDC     C937112  12.021   4.711   5.203  1.5371  0.2487  0.5533
 3374UDC    C1037113  11.992   4.678   5.056  0.5808 -0.6096  1.0421
 3374UDC    C1137114  12.013   4.797   4.969 -0.8126  1.1679  0.1364
 3375UDC     C137115  15.528   6.973   6.993 -1.6157  0.2574  0.6861
 3375UDC     C237116  15.620   7.074   7.057 -0.8160  0.7035  0.7321
 3375UDC     C337117  15.652   7.035   7.197 -0.4780 -1.2490  0.0130
 3375UDC     C437118  15.703   7.150   7.290 -0.1376 -0.0508  0.2374
 3375UDC     C537119  15.744   7.107   7.434 -0.7156  0.3896  1.1104
 3375UDC     C637120  15.675   6.986   7.493  0.3878 -0.0958 -0.4373
 3375UDC     C737121  15.733   6.953   7.641 -0.5011  1.0462  0.0925
 3375UDC     C837122  15.744   6.797   7.660 -0.1867  0.1338  0.0862
 3375UDC     C937123  15.612   6.724   7.617 -0.9496 -0.2897 -0.4976
 3375UDC    C1037124  15.614   6.575   7.582 -0.0880 -0.0932  0.0676
 3375UDC    C1137125  15.720   6.518   7.476 -0.2314  0.4025 -1.0284
 3376UDC     C137126   4.675  13.933  10.736 -0.8449  0.1216  0.2484
 3376UDC     C237127   4.718  14.000  10.603 -0.1779  1.5068  0.9196
 3376UDC     C337128   4.647  13.932  10.483 -0.9974 -0.5058  0.3099
 3376UDC     C437129   4.668  14.005  10.347 -0.2451 -0.2287 -0.9359
 3376UDC     C537130   4.788  13.946  10.265  0.2372  0.4868  0.0356
 3376UDC     C637131   4.831  14.035  10.150 -0.4403 -0.7857  0.1824
 3376UDC     C737132   4.874  13.996  10.002  1.0097 -0.5709 -0.4287
 3376UDC     C837133   4.989  13.899  10.005 -0.7729 -0.0394 -0.1788
 3376UDC     C937134   5.039  13.883   9.858  0.5663  0.4391  0.0290
 3376UDC    C1037135   5.112  13.996   9.779  0.3533 -0.2262  0.6233
 3376UDC    C1137136   5.153  13.924   9.648 -0.6003  0.6834 -0.0233
 3377UDC     C137137   2.816  12.514   0.379  0.4736 -0.5600 -0.0193
 3377UDC     C237138   2.707  12.414   0.433 -0.7624 -1.3683  0.3804
 3377UDC     C337139   2.584  12.413   0.352  0.7446 -0.0554  0.5468
 3377UDC     C437140   2.556  12.554   0.295 -0.2608  0.6972  0.4860
 3377UDC     C537141   2.409  12.573   0.250 -0.5072 -0.5721  0.1836
 3377UDC     C637142   2.411  12.708   0.173  1.0188  0.5059 -0.6779
 3377UDC     C737143   2.280  12.757   0.114  0.1174 -0.1999 -0.1462
 3377UDC     C837144   2.318  12.884   0.037  1.6500  0.8766  0.7978
 3377UDC     C937145   2.192  12.947  -0.018  0.5348 -0.6613 -0.0943
 3377UDC    C1037146   2.220  13.090  -0.071 -0.3733  0.4774 -0.5325
 3377UDC    C1137147   2.305  13.164   0.029  0.7774  0.1991  0.3244
 3378UDC     C137148   0.120  19.046  17.065  0.3685  0.2438 -0.7046
 3378UDC     C237149   0.124  19.201  17.081 -0.6380  1.3589  0.5418
 3378UDC     C337150   0.013  19.280  17.012 -0.0569  1.1012 -0.7696
 3378UDC     C437151   0.015  19.435  17.016  0.1680  1.4432 -0.5557
 3378UDC     C537152  -0.110  19.491  16.944 -0.8291 -0.5171 -1.6247
 3378UDC     C637153  -0.121  19.647  16.920 -0.5604 -0.7318  1.3044
 3378UDC     C737154  -0.247  19.651  16.832 -0.8973  0.3179  0.0112
 3378UDC     C837155  -0.301  19.792  16.782 -0.2153  0.4450 -0.4622
 3378UDC     C937156  -0.383  19.889  16.878  0.0076  1.0051  0.6113
 3378UDC    C1037157  -0.541  19.880  16.894 -0.1182 -0.9467 -0.0913
 3378UDC    C1137158  -0.594  19.747  16.942  0.1492  1.2366 -0.3343
 3379UDC     C137159   0.647  12.623  10.155 -0.1026 -1.2849  0.3421
 3379UDC     C237160   0.556  12.516  10.223  0.9979 -0.1050 -0.6289
 3379UDC     C337161   0.415  12.571  10.262  0.9714  0.6762  0.1320
 3379UDC     C437162   0.391  12.571  10.418  0.3942 -0.8273 -0.1276
 3379UDC     C537163   0.245  12.612  10.451  0.2813 -0.0282 -0.5153
 3379UDC     C637164   0.207  12.752  10.404  0.8103  0.0987  0.3516
 3379UDC     C737165   0.095  12.753  10.293 -0.4752  0.4016 -0.4078
 3379UDC     C837166   0.071  12.889  10.214  0.6277 -0.0338 -0.6729
 3379UDC     C937167  -0.052  12.874  10.118 -0.4463  0.7638 -0.4997
 3379UDC    C1037168  -0.058  12.999  10.030 -0.0218 -1.0594 -0.1256
 3379UDC    C1137169  -0.064  13.153  10.087 -0.0671  0.8673  0.9100
 3380UDC     C137170   6.207  10.129   3.416 -0.2591  0.2398 -0.3023
 3380UDC     C237171   6.237   9.991   3.468  0.1978 -0.2320  0.3351
 3380UDC     C337172   6.306   9.968   3.599  0.6893  0.0883 -0.5587
 3380UDC     C437173   6.370   9.825   3.617  0.3051 -1.0003  0.3701
 3380UDC     C537174   6.261   9.710   3.593 -0.5483 -0.4543  0.3168
 3380UDC     C637175   6.209   9.642   3.720  0.5538  0.3863  0.2012
 3380UDC     C737176   6.081   9.554   3.691 -0.3031  0.7941 -0.2852
 3380UDC     C837177   6.116   9.447   3.586 -0.4154 -0.3666  0.9317
 3380UDC     C937178   6.175   9.320   3.649  0.6541  0.1738 -0.0094
 3380UDC    C1037179   6.258   9.230   3.559 -0.2654 -0.8304  0.3799
 3380UDC    C1137180   6.380   9.305   3.512  0.2200 -0.2562  0.0835
 3381UDC     C137181   7.952   4.793  13.702 -0.0259  0.2746 -0.4209
 3381UDC     C237182   7.844   4.746  13.603  0.6996 -0.1000 -0.5551
 3381UDC     C337183   7.876   4.688  13.464 -0.7575 -0.1679 -0.2841
 3381UDC     C437184   7.747   4.667  13.377  0.5826  0.8082  0.1933
 3381UDC     C537185   7.781   4.589  13.250  0.2305 -0.0357  0.4550
 3381UDC     C637186   7.904   4.638  13.172  0.5495  0.7176 -1.4257
 3381UDC     C737187   7.903   4.569  13.032 -0.4867  0.3390  0.2562
 3381UDC     C837188   7.991   4.654  12.937  0.8415  0.1223 -0.0961
 3381UDC     C937189   7.965   4.800  12.950 -0.0078  0.4545 -0.0949
 3381UDC    C1037190   7.863   4.859  12.851 -0.6581 -0.7413  0.2431
 3381UDC    C1137191   7.820   4.792  12.723  0.8028  0.1762 -1.4257
 3382UDC     C137192  18.211   4.309   4.640  0.9470  0.7297 -0.0115
 3382UDC     C237193  18.297   4.287   4.513  1.6398  0.2098 -0.3847
 3382UDC     C337194  18.415   4.187   4.533 -0.3871  0.9988 -0.1456
 3382UDC     C437195  18.505   4.133   4.420 -0.2967 -0.8097  0.7232
 3382UDC     C537196  18.626   4.039   4.444  1.6071 -0.3997 -0.5444
 3382UDC     C637197  18.587   3.893   4.448  0.7960  1.3221 -0.6705
 3382UDC     C737198  18.704   3.805   4.479 -0.9466  1.1560  0.9814
 3382UDC     C837199  18.823   3.813   4.387 -0.5201  0.3707  0.2455
 3382UDC     C937200  18.942   3.722   4.411  0.1076  0.2246 -0.3296
 3382UDC    C1037201  19.022   3.688   4.286  0.6569 -1.4583 -0.4791
 3382UDC    C1137202  19.132   3.579   4.299  0.6206 -0.7778 -0.9989
 3383UDC     C137203   8.120  11.045   2.153  0.9502  0.0754 -1.3946
 3383UDC     C237204   8.133  10.954   2.036  0.3213  0.4720 -0.3311
 3383UDC     C337205   8.028  10.834   2.029  0.3135  0.9447 -0.6844
 3383UDC     C437206   7.887  10.874   1.985 -0.5788 -0.2759 -0.1598
 3383UDC     C537207   7.766  10.783   1.990  0.2245  0.2147 -1.0882
 3383UDC     C637208   7.747  10.685   1.866 -0.3811 -0.3499 -0.2796
 3383UDC     C737209   7.789  10.743   1.727 -0.0251 -0.8560 -0.3062
 3383UDC     C837210   7.711  10.658   1.623 -0.2119  0.4749 -0.6541
 3383UDC     C937211   7.743  10.513   1.581 -0.2930 -0.2048  1.5367
 3383UDC    C1037212   7.888  10.466   1.552  0.6001 -0.1767  0.3088
 3383UDC    C1137213   7.905  10.320   1.511  0.3674 -0.1972  0.7868
 3384UDC     C137214   6.175  12.962  15.375  0.1052 -0.3655  0.3639
 3384UDC     C237215   6.225  12.979  15.231 -0.4339 -0.6072  0.4493
 3384UDC     C337216   6.349  13.066  15.209  0.0364 -0.6141  0.8592
 3384UDC     C437217   6.368  13.115  15.066 -0.0267  0.0327 -0.6255
 3384UDC     C537218   6.267  13.188  14.977  0.5773 -0.4549 -0.8777
 3384UDC     C637219   6.301  13.224  14.833 -1.2079 -0.8661 -0.5724
 3384UDC     C737220   6.413  13.325  14.794 -0.1496 -0.2266 -0.4746
 3384UDC     C837221   6.420  13.340  14.638 -0.5571  0.8227 -0.5379
 3384UDC     C937222   6.533  13.445  14.598  0.5648  0.7370  1.4422
 3384UDC    C1037223   6.539  13.425  14.441 -0.5820 -0.0648 -0.3176
 3384UDC    C1137224   6.430  13.501  14.362 -0.4164  0.1639  0.1753
 3385UDC     C137225   5.052  10.218  14.464  0.7984 -0.8622 -0.9569
 3385UDC     C237226   4.903  10.237  14.510  0.3008  0.0000 -1.1570
 3385UDC     C337227   4.852  10.379  14.498 -0.1649 -1.4507  0.3570
 3385UDC     C437228   4.737  10.385  14.393  0.3715 -0.1853  0.3143
 3385UDC     C537229   4.768  10.512  14.308  0.4317 -0.8920 -0.5116
 3385UDC     C637230   4.658  10.557  14.213  0.0461 -0.4257  0.0299
 3385UDC     C737231   4.576  10.685  14.248  0.0619  0.2975 -0.0600
 3385UDC     C837232   4.427  10.668  14.189  0.5417  0.5214  0.2189
 3385UDC     C937233   4.325  10.790  14.181  0.2896  0.0721 -0.7046
 3385UDC    C1037234   4.328  10.857  14.319 -0.0728  0.4366  0.8509
 3385UDC    C1137235   4.340  11.007  14.286  0.1190  1.1542 -0.3385
 3386UDC     C137236  15.826  15.642  18.599  0.3420 -0.6388  0.4386
 3386UDC     C237237  15.856  15.505  18.537  0.1992  0.0777  0.2334
 3386UDC     C337238  15.934  15.536  18.407  0.9296 -0.5719 -0.6952
 3386UDC     C437239  16.001  15.423  18.336 -1.0861  0.0096 -0.2070
 3386UDC     C537240  16.045  15.435  18.185  0.6747  0.1799 -0.0562
 3386UDC     C637241  16.142  15.552  18.161 -0.0113  1.0204 -0.3284
 3386UDC     C737242  16.248  15.499  18.071 -0.7533  0.5345 -0.3734
 3386UDC     C837243  16.331  15.625  18.042  0.3443 -0.3323 -0.7569
 3386UDC     C937244  16.442  15.659  18.145  0.2552  0.2381 -0.1751
 3386UDC    C1037245  16.522  15.785  18.112 -0.0690 -1.0249 -0.4254
 3386UDC    C1137246  16.513  15.892  18.220  0.7532 -0.0041 -0.1976
 3387UDC     C137247  17.446   4.500   5.223 -0.4936 -0.5964  0.4559
 3387UDC     C237248  17.477   4.464   5.369 -0.4156  0.2848  0.5411
 3387UDC     C337249  17.445   4.564   5.481  0.3193  0.1844  0.7586
 3387UDC     C437250  17.436   4.531   5.629 -0.3960  0.0519  0.0919
 3387UDC     C537251  17.557   4.452   5.677  0.0485  0.1348  0.6893
 3387UDC     C637252  17.596   4.472   5.820 -0.2782  0.4695 -0.2144
 3387UDC     C737253  17.634   4.617   5.859  0.7838  1.3161 -0.8571
 3387UDC     C837254  17.615   4.645   6.009  0.4879 -1.2472 -0.1763
 3387UDC     C937255  17.681   4.537   6.102  0.8964 -1.3025  0.9463
 3387UDC    C1037256  17.559   4.444   6.136 -0.3658  1.0311 -0.1594
 3387UDC    C1137257  17.578   4.326   6.237  0.2479 -0.1895  0.3710
 3388UDC     C137258  18.216  18.321   8.155 -0.0237 -0.1470  0.4004
 3388UDC     C237259  18.197  18.413   8.277 -0.1652 -0.5257  0.8527
 3388UDC     C337260  18.140  18.331   8.397 -1.2837  0.5401 -0.7139
 3388UDC     C437261  18.213  18.195   8.430  0.6421  0.2508 -0.3946
 3388UDC     C537262  18.117  18.102   8.513  0.1667  0.6746  0.6261
 3388UDC     C637263  18.184  17.967   8.552  0.5338 -0.1879  0.1812
 3388UDC     C737264  18.304  18.011   8.636  0.1985 -0.7025  1.3791
 3388UDC     C837265  18.360  17.907   8.725 -0.0478  0.2303 -0.3982
 3388UDC     C937266  18.449  17.972   8.831  0.9627 -0.1275  0.8501
 3388UDC    C1037267  18.377  18.092   8.889 -0.5041  0.6890  0.5270
 3388UDC    C1137268  18.457  18.197   8.965 -1.2752  0.2863 -0.0254
 3389UDC     C137269   8.414  10.803  16.548  0.6598  0.6690  0.1699
 3389UDC     C237270   8.413  10.841  16.698  0.4706 -0.5397  0.4907
 3389UDC     C337271   8.419  10.727  16.805 -0.0231 -0.4408  0.0860
 3389UDC     C437272   8.419  10.779  16.950 -0.1946 -0.5809 -0.5367
 3389UDC     C537273   8.424  10.655  17.038  0.4196  0.9337 -0.1035
 3389UDC     C637274   8.297  10.652  17.127 -0.9978  0.0906 -0.3259
 3389UDC     C737275   8.284  10.785  17.197 -0.0753 -1.4387 -0.3468
 3389UDC     C837276   8.149  10.832  17.261 -0.1863 -0.4088 -0.0419
 3389UDC     C937277   8.180  10.939  17.365  0.3495  0.2106 -1.0836
 3389UDC    C1037278   8.070  11.049  17.385 -0.5468 -0.6832  0.5440
 3389UDC    C1137279   7.933  10.987  17.407  0.1183  1.1580 -0.1696
 3390UDC     C137280  17.502  16.439  19.566 -0.6546 -0.0283 -0.9778
 3390UDC     C237281  17.624  16.465  19.480  0.2413 -0.7194  0.5259
 3390UDC     C337282  17.597  16.406  19.341 -0.1012 -0.6534  1.0325
 3390UDC     C437283  17.449  16.375  19.300 -0.4746 -0.5839 -0.4690
 3390UDC     C537284  17.424  16.375  19.151  0.4737 -0.1500  0.3998
 3390UDC     C637285  17.471  16.263  19.054  0.5906 -0.7574 -0.0113
 3390UDC     C737286  17.386  16.139  19.053  0.1217 -0.2357  0.3937
 3390UDC     C837287  17.394  16.044  18.931 -0.3684  0.3855 -0.0928
 3390UDC     C937288  17.357  16.115  18.800  0.7039  0.6163  0.3364
 3390UDC    C1037289  17.394  16.061  18.663 -0.0292 -0.1137 -0.2685
 3390UDC    C1137290  17.373  16.170  18.558  0.6095 -1.0163 -0.3247
 3391UDC     C137291  16.809  10.486   7.531  0.1303  0.2613 -0.1603
 3391UDC     C237292  16.903  10.504   7.648  0.0895 -1.4898 -0.2945
 3391UDC     C337293  16.849  10.478   7.795  0.1273 -0.6252  0.5285
 3391UDC     C437294  16.964  10.458   7.896  0.3483 -1.0827 -0.4319
 3391UDC     C537295  17.075  10.355   7.859  0.3183 -0.9950 -0.7256
 3391UDC     C637296  17.161  10.351   7.982 -0.2504 -0.0000  1.1969
 3391UDC     C737297  17.245  10.222   8.012 -0.1456 -0.0958 -0.0353
 3391UDC     C837298  17.162  10.149   8.115 -0.3802  0.0737 -0.6360
 3391UDC     C937299  17.180   9.993   8.109  0.6495 -2.0599 -0.9611
 3391UDC    C1037300  17.076   9.931   8.016 -0.7091 -0.3505  0.3161
 3391UDC    C1137301  17.140   9.919   7.880 -0.2868  0.0653 -1.2788
 3392UDC     C137302  10.068   8.740   9.622  0.0546  0.6546  1.0081
 3392UDC     C237303   9.940   8.809   9.579  0.5617 -0.3922  0.6472
 3392UDC     C337304   9.844   8.729   9.485 -0.2940  0.4011 -0.5467
 3392UDC     C437305   9.887   8.728   9.335 -0.0354  0.7506  0.1544
 3392UDC     C537306   9.883   8.867   9.277  0.2650  1.0846  0.2633
 3392UDC     C637307   9.735   8.914   9.289 -0.4302  0.5268 -0.9892
 3392UDC     C737308   9.691   9.047   9.228  0.8333  1.3519  0.4053
 3392UDC     C837309   9.647   9.044   9.076  0.3685  0.5096 -0.2792
 3392UDC     C937310   9.599   9.182   9.035  0.8209  0.4072  1.0485
 3392UDC    C1037311   9.459   9.229   9.074 -0.8316  0.5156  0.5503
 3392UDC    C1137312   9.363   9.150   8.989  0.1706  0.3647 -0.1415
 3393UDC     C137313   9.297  15.344  18.850 -0.6250  0.8243  0.4126
 3393UDC     C237314   9.299  15.204  18.893  1.0344 -0.2633 -0.7334
 3393UDC     C337315   9.351  15.109  18.790 -0.2471 -0.3849 -0.3960
 3393UDC     C437316   9.501  15.063  18.768  0.5707 -0.1560 -0.4432
 3393UDC     C537317   9.510  14.976  18.642  0.9640 -0.6123 -0.5785
 3393UDC     C637318   9.434  14.849  18.647  1.3216 -0.9348 -0.2924
 3393UDC     C737319   9.473  14.746  18.536  0.1816 -0.1504 -0.4083
 3393UDC     C837320   9.457  14.788  18.391 -0.0451  0.0603 -0.0029
 3393UDC     C937321   9.524  14.687  18.296  0.7678 -0.7233 -0.1093
 3393UDC    C1037322   9.655  14.734  18.229 -1.0444  0.3994  0.0013
 3393UDC    C1137323   9.785  14.719  18.306 -0.2042  0.5907  0.6401
 3394UDC     C137324  12.544  12.492  13.734  0.6254 -0.7573 -1.1462
 3394UDC     C237325  12.521  12.448  13.586  0.4886 -0.3065  0.5710
 3394UDC     C337326  12.635  12.497  13.487 -0.6722  0.7527 -0.3812
 3394UDC     C437327  12.610  12.624  13.405 -0.3457  0.6549  1.3526
 3394UDC     C537328  12.602  12.766  13.465  0.4060 -0.3443 -0.0719
 3394UDC     C637329  12.566  12.866  13.351 -0.9643  0.7671 -0.5343
 3394UDC     C737330  12.617  13.009  13.381  0.3587  0.5923 -0.2921
 3394UDC     C837331  12.769  13.013  13.414 -1.4504  0.0749  0.7071
 3394UDC     C937332  12.820  13.157  13.429 -0.0561 -0.6229  0.1952
 3394UDC    C1037333  12.730  13.227  13.536 -0.5060  0.3200  0.0780
 3394UDC    C1137334  12.731  13.160  13.680 -0.8394  0.9582 -0.4297
 3395UDC     C137335   1.629   4.813  18.713  0.4328 -0.3631 -0.1275
 3395UDC     C237336   1.735   4.911  18.775 -1.1525  0.4512  0.2923
 3395UDC     C337337   1.862   4.944  18.697  0.0550 -0.3337  0.4598
 3395UDC     C437338   1.838   4.990  18.554  0.9348  0.1124  0.2119
 3395UDC     C537339   1.978   5.012  18.488  0.7453 -0.2075  0.1597
 3395UDC     C637340   1.963   5.052  18.346 -0.3660 -0.1676 -0.3366
 3395UDC     C737341   2.098   5.114  18.297 -1.5152  1.1193  0.5933
 3395UDC     C837342   2.231   5.067  18.357 -0.1246  1.1831 -0.4229
 3395UDC     C937343   2.352   5.144  18.297  1.0843  0.3992 -0.2989
 3395UDC    C1037344   2.435   5.056  18.204  1.0979  0.3437 -0.3510
 3395UDC    C1137345   2.533   5.136  18.128 -0.9535  0.0447 -0.1702
 3396UDC     C137346  13.660   6.596   6.779 -0.8598  0.1062  1.0068
 3396UDC     C237347  13.780   6.698   6.806 -0.2222 -0.7584 -1.2007
 3396UDC     C337348  13.767   6.840   6.756 -0.4945 -0.5524  0.1018
 3396UDC     C437349  13.751   6.860   6.592 -0.4174  0.1667  0.0023
 3396UDC     C537350  13.731   6.989   6.529 -0.0588 -0.7174  0.5481
 3396UDC     C637351  13.616   7.083   6.572 -0.5005 -0.8491  1.1558
 3396UDC     C737352  13.628   7.225   6.516  0.3505  0.6914  0.2173
 3396UDC     C837353  13.511   7.307   6.573 -0.2875 -0.3913  0.0784
 3396UDC     C937354  13.391   7.301   6.478  0.0602  0.1734 -0.9314
 3396UDC    C1037355  13.380   7.360   6.339  0.8388  0.2669 -0.0529
 3396UDC    C1137356  13.447   7.493   6.313  0.1738  0.5094  0.0966
 3397UDC     C137357  19.501  10.659  14.679 -0.5643 -0.3802  0.5939
 3397UDC     C237358  19.516  10.509  14.706  0.9854 -0.1653 -0.9433
 3397UDC     C337359  19.526  10.417  14.578  0.7644  0.2189 -0.2678
 3397UDC     C437360  19.404  10.443  14.485  0.0018  0.0273  0.7670
 3397UDC     C537361  19.425  10.397  14.337 -0.0331 -0.5990 -0.4600
 3397UDC     C637362  19.446  10.248  14.343  0.7576  1.2035 -0.5487
 3397UDC     C737363  19.356  10.159  14.432 -0.3602  0.2260 -0.8143
 3397UDC     C837364  19.382  10.022  14.487  0.6111  0.1558  0.1269
 3397UDC     C937365  19.494  10.026  14.595  0.1912  0.1429 -0.6109
 3397UDC    C1037366  19.509   9.899  14.682 -0.9057  0.1579 -0.4569
 3397UDC    C1137367  19.570   9.934  14.821  0.0721 -0.2271  0.0330
 3398UDC     C137368   2.578  16.121  12.649 -0.2983 -0.0023 -0.0814
 3398UDC     C237369   2.630  16.114  12.503  1.0148  0.8273 -1.2693
 3398UDC     C337370   2.530  16.085  12.389 -0.3405  0.4377  0.1384
 3398UDC     C437371   2.561  16.189  12.279  0.2562  0.1959  0.9832
 3398UDC     C537372   2.507  16.324  12.323 -0.5356  0.3803  1.3012
 3398UDC     C637373   2.564  16.443  12.242  0.6078 -0.2928  0.7453
 3398UDC     C737374   2.704  16.480  12.285 -0.2639 -0.3496  0.0566
 3398UDC     C837375   2.710  16.593  12.401  0.7681  0.3198  0.6169
 3398UDC     C937376   2.675  16.549  12.540  0.6009  0.5098  0.4828
 3398UDC    C1037377   2.614  16.652  12.625 -0.4954 -0.1959  1.0122
 3398UDC    C1137378   2.741  16.725  12.680 -0.2780 -0.7546  0.0739
 3399UDC     C137379  14.690   3.737  10.410 -0.1416  0.1673  0.4485
 3399UDC     C237380  14.748   3.805  10.285  0.7415  0.8012 -1.3790
 3399UDC     C337381  14.850   3.694  10.275  0.7144 -0.7845  0.5504
 3399UDC     C437382  14.937   3.701  10.141  0.6621  0.5835 -0.5972
 3399UDC     C537383  15.010   3.572  10.099  0.7326 -0.2052  1.3359
 3399UDC     C637384  15.106   3.596   9.987  0.1830 -0.5953  0.6636
 3399UDC     C737385  15.190   3.473   9.953  1.1584 -0.1560  0.9159
 3399UDC     C837386  15.321   3.516   9.902 -0.7610 -0.3123 -0.2750
 3399UDC     C937387  15.315   3.552   9.756  0.4449  0.6255 -0.2952
 3399UDC    C1037388  15.391   3.682   9.728  0.8035 -0.0552  0.7721
 3399UDC    C1137389  15.433   3.687   9.583  0.0734  0.6663 -0.3333
 3400UDC     C137390  12.357  16.918   8.225  0.1981 -0.3844 -0.9177
 3400UDC     C237391  12.395  17.003   8.355 -0.1577  0.4853 -0.2146
 3400UDC     C337392  12.493  17.122   8.338  0.6826 -0.7456  0.4406
 3400UDC     C437393  12.546  17.163   8.477 -0.0051  0.6198 -0.5100
 3400UDC     C537394  12.667  17.254   8.467 -0.2358 -0.5307 -0.3660
 3400UDC     C637395  12.720  17.274   8.609  0.4667  0.1771 -1.0321
 3400UDC     C737396  12.845  17.350   8.648 -0.3884  0.5988 -0.0290
 3400UDC     C837397  12.962  17.322   8.548  1.1561  0.4086 -0.0568
 3400UDC     C937398  13.032  17.200   8.615 -0.3420  0.0644 -0.2147
 3400UDC    C1037399  13.159  17.134   8.544  0.1510  0.0632  0.0225
 3400UDC    C1137400  13.158  16.982   8.582  0.4307  0.3078  0.1935
 3401UDC     C137401  11.107   2.098   7.833 -0.5509 -1.0815  0.0648
 3401UDC     C237402  11.072   2.245   7.790  1.4199  0.2958 -0.0046
 3401UDC     C337403  11.112   2.300   7.650  0.7287 -0.2000  0.4448
 3401UDC     C437404  11.252   2.365   7.639  0.0879  0.5525  0.1026
 3401UDC     C537405  11.375   2.273   7.672 -0.2774  0.0826  1.4208
 3401UDC     C637406  11.506   2.256   7.581  0.7652 -0.1015  0.4022
 3401UDC     C737407  11.612   2.181   7.654  0.2145  0.9883  0.4821
 3401UDC     C837408  11.730   2.146   7.565 -0.9632 -0.0231 -0.3027
 3401UDC     C937409  11.816   2.032   7.621 -0.4632 -0.0870  0.2697
 3401UDC    C1037410  11.739   1.901   7.653 -0.4964  0.0515  0.7710
 3401UDC    C1137411  11.822   1.799   7.740 -0.0183  0.3603  1.3563
 3402UDC     C137412   3.596  11.572  18.526  0.1634 -0.2215 -1.0212
 3402UDC     C237413   3.747  11.568  18.497  0.2194 -0.1204 -0.8245
 3402UDC     C337414   3.767  11.518  18.354  0.5890  0.1551 -0.7551
 3402UDC     C437415   3.697  11.387  18.331  0.0471  0.0813  0.3484
 3402UDC     C537416   3.743  11.334  18.192  0.6093  0.4005 -0.1301
 3402UDC     C637417   3.619  11.242  18.148  0.4496  0.5357  0.3874
 3402UDC     C737418   3.634  11.146  18.024 -0.2009  1.0559  0.0406
 3402UDC     C837419   3.535  11.025  18.010 -0.3096  1.3751 -1.1325
 3402UDC     C937420   3.524  10.961  17.874 -0.1679 -0.9233 -0.5106
 3402UDC    C1037421   3.418  10.857  17.905  1.0800 -0.9029  1.2390
 3402UDC    C1137422   3.326  10.916  18.015 -0.5004  0.3086 -0.1322
 3403UDC     C137423  10.871  18.379  11.895  0.2147 -0.2866  0.5792
 3403UDC     C237424  10.732  18.436  11.867  0.7715  0.3645 -0.1438
 3403UDC     C337425  10.607  18.375  11.937  0.2413 -0.3173  0.7606
 3403UDC     C437426  10.656  18.391  12.083 -0.1438 -0.7342 -0.0844
 3403UDC     C537427  10.532  18.400  12.171  0.1210  0.5245  0.1260
 3403UDC     C637428  10.434  18.273  12.163 -0.2160 -0.9050  0.9792
 3403UDC     C737429  10.345  18.240  12.284  0.0933 -1.1278 -0.1223
 3403UDC     C837430  10.271  18.099  12.280 -0.4678 -0.8732  0.4174
 3403UDC     C937431  10.200  18.071  12.407  0.4645 -0.6372 -0.6823
 3403UDC    C1037432  10.283  18.087  12.537  1.0237  0.3316 -0.2644
 3403UDC    C1137433  10.390  17.980  12.566 -0.2486 -1.4340  0.1960
 3404UDC     C137434   2.926   9.750   4.098 -0.0888  0.3593 -0.1782
 3404UDC     C237435   2.827   9.841   4.018  0.7085  0.4676  0.2426
 3404UDC     C337436   2.850   9.993   3.981 -0.2544  0.5979 -1.2870
 3404UDC     C437437   2.867  10.106   4.079  0.7884 -0.4637  0.8689
 3404UDC     C537438   3.004  10.161   4.071 -0.0280  0.5436  0.6959
 3404UDC     C637439   3.029  10.259   4.192 -0.6999  0.1662 -0.8086
 3404UDC     C737440   3.175  10.319   4.169  0.4730  1.3679  0.2714
 3404UDC     C837441   3.208  10.437   4.258  0.3224  0.3432  0.0797
 3404UDC     C937442   3.360  10.468   4.268  0.4569 -0.5498  0.0712
 3404UDC    C1037443   3.425  10.441   4.406 -0.4522 -0.9505 -0.1165
 3404UDC    C1137444   3.332  10.476   4.520  0.7809  1.1990 -1.1050
 3405UDC     C137445   3.393  10.293   5.777  0.6541  0.0381  0.2615
 3405UDC     C237446   3.439  10.149   5.747  0.2894 -0.1106  0.0375
 3405UDC     C337447   3.332  10.065   5.676 -0.6981  0.5439 -0.2130
 3405UDC     C437448   3.373   9.932   5.603  0.2970 -0.5998  0.5459
 3405UDC     C537449   3.267   9.892   5.498 -0.9891  0.4004 -0.0287
 3405UDC     C637450   3.260   9.970   5.364  0.3212 -0.4165  0.1357
 3405UDC     C737451   3.359   9.936   5.248  0.6885  0.1894 -0.2658
 3405UDC     C837452   3.334  10.026   5.127 -0.4420 -0.4322  0.2372
 3405UDC     C937453   3.384   9.978   4.990  0.1762 -0.2024 -0.6924
 3405UDC    C1037454   3.357   9.827   4.977 -0.3429 -0.1213 -0.4962
 3405UDC    C1137455   3.361   9.777   4.830 -0.5117  0.3300  0.5816
 3406UDC     C137456  12.627  11.964   2.540  0.8052 -0.0603 -0.4864
 3406UDC     C237457  12.488  12.026   2.511  1.6386 -0.7073  0.2702
 3406UDC     C337458  12.451  12.167   2.576  0.2567  0.8079 -0.9714
 3406UDC     C437459  12.302  12.213   2.541 -0.3700 -0.2829 -0.1521
 3406UDC     C537460  12.272  12.360   2.568  0.7831 -0.9125 -0.6871
 3406UDC     C637461  12.130  12.418   2.574 -0.2134 -0.2998 -1.9568
 3406UDC     C737462  12.083  12.544   2.500 -0.3274 -0.0962  0.1323
 3406UDC     C837463  12.015  12.503   2.372  1.6815 -0.2863  0.5499
 3406UDC     C937464  11.969  12.624   2.284 -0.3110  0.2238 -0.6968
 3406UDC    C1037465  11.993  12.590   2.142  0.7166 -0.2664  1.1536
 3406UDC    C1137466  11.907  12.462   2.111  0.1330  0.3793 -0.5891
 3407UDC     C137467  18.620  18.679  19.746  0.4835  0.8533 -0.1136
 3407UDC     C237468  18.540  18.612  19.862 -0.7826  0.7118 -1.1579
 3407UDC     C337469  18.386  18.625  19.856 -0.3639  1.0467  0.1780
 3407UDC     C437470  18.321  18.750  19.922 -0.8341  0.1995 -0.5395
 3407UDC     C537471  18.171  18.762  19.911  0.1693  0.1597 -0.3305
 3407UDC     C637472  18.090  18.698  20.023  0.6803 -0.9255  0.3938
 3407UDC     C737473  17.985  18.800  20.093 -0.3322  0.2923  0.1876
 3407UDC     C837474  18.041  18.915  20.173 -1.2785  0.7830  0.2137
 3407UDC     C937475  18.116  19.041  20.127 -0.7701 -0.5725 -0.4301
 3407UDC    C1037476  18.215  19.100  20.233  0.2937 -1.3373 -0.4689
 3407UDC    C1137477  18.125  19.140  20.353 -0.2050  0.0192  0.6455
 3408UDC     C137478   8.101   3.649   6.342  0.6093  0.7711  0.6686
 3408UDC     C237479   8.060   3.627   6.490  0.3826 -0.2529 -0.7866
 3408UDC     C337480   8.140   3.707   6.588  0.4890  0.3242  0.3549
 3408UDC     C437481   8.089   3.748   6.719  0.1245 -0.1285 -0.9582
 3408UDC     C537482   7.979   3.847   6.698 -0.6794 -0.0490  1.4783
 3408UDC     C637483   7.969   3.945   6.820 -0.8500 -0.2323  1.3431
 3408UDC     C737484   7.826   3.989   6.859  0.2193  0.1829  0.3134
 3408UDC     C837485   7.821   4.083   6.982 -0.0742 -0.1246  0.2849
 3408UDC     C937486   7.679   4.137   7.012 -0.9513 -0.7766  1.0615
 3408UDC    C1037487   7.639   4.218   6.886 -0.2090 -0.1123  1.0026
 3408UDC    C1137488   7.702   4.355   6.898  0.7566 -0.3581 -0.3328
 3409UDC     C137489   6.386  12.485  15.348 -0.1975 -0.3466  0.1587
 3409UDC     C237490   6.495  12.470  15.458 -0.4488 -1.0490  0.7221
 3409UDC     C337491   6.458  12.358  15.556  0.4060  0.6281 -0.7575
 3409UDC     C437492   6.445  12.218  15.494  0.4949 -0.2522 -0.5467
 3409UDC     C537493   6.321  12.154  15.554 -0.1844 -0.0282  0.4323
 3409UDC     C637494   6.200  12.243  15.558 -0.5619 -0.3832  0.3080
 3409UDC     C737495   6.063  12.176  15.551 -1.0287 -0.0078  0.0938
 3409UDC     C837496   5.952  12.264  15.600  0.5916 -0.1516 -0.0669
 3409UDC     C937497   6.013  12.390  15.668  0.8809  1.4099 -0.8581
 3409UDC    C1037498   5.906  12.482  15.737  0.7897  0.0866  0.3909
 3409UDC    C1137499   5.974  12.612  15.799 -0.6056  0.6381  0.6841
 3410UDC     C137500  13.242   7.727  17.219 -0.3257  0.7482  0.4163
 3410UDC     C237501  13.194   7.871  17.215 -0.3547 -1.1105  1.1929
 3410UDC     C337502  13.127   7.934  17.342 -0.2937 -0.1866  0.9315
 3410UDC     C437503  12.984   7.882  17.361  0.1736 -0.5208  0.1394
 3410UDC     C537504  12.904   7.975  17.461 -0.7151 -0.6477  0.0644
 3410UDC     C637505  12.965   7.987  17.606  0.8018  0.1754 -0.0333
 3410UDC     C737506  12.917   8.098  17.707  0.2257  0.7424  0.3998
 3410UDC     C837507  12.957   8.238  17.663  0.4019  0.9088  0.2757
 3410UDC     C937508  13.024   8.315  17.773  0.0706 -0.2033  0.0579
 3410UDC    C1037509  13.122   8.243  17.866 -0.9806  0.3047 -0.3068
 3410UDC    C1137510  13.106   8.324  17.998 -0.0481 -0.0518  0.5083
 3411UDC     C137511  17.567   1.887   3.751 -0.6952 -0.0452  0.3480
 3411UDC     C237512  17.528   1.832   3.613  0.8270  0.0357  0.2083
 3411UDC     C337513  17.381   1.860   3.592 -0.3486  0.4228  0.7024
 3411UDC     C437514  17.314   1.812   3.461  0.5905  0.4557  0.8102
 3411UDC     C537515  17.280   1.664   3.479  0.6670  0.2185  0.0542
 3411UDC     C637516  17.174   1.612   3.391  1.0508  0.5941 -0.8410
 3411UDC     C737517  17.042   1.676   3.452 -0.5023 -0.2688  0.1173
 3411UDC     C837518  16.924   1.620   3.366  0.3279 -0.0559 -0.9742
 3411UDC     C937519  16.941   1.609   3.217  0.8358 -0.0899 -0.6896
 3411UDC    C1037520  16.820   1.553   3.143  1.6936 -0.7355 -0.5733
 3411UDC    C1137521  16.865   1.558   2.996 -0.3020 -0.4480  0.2829
 3412UDC     C137522  11.134  12.186   9.854 -0.1494 -0.0446 -0.5868
 3412UDC     C237523  11.073  12.146   9.720 -0.2365  0.0933  1.4233
 3412UDC     C337524  10.932  12.095   9.736 -0.9567  0.6369  0.0232
 3412UDC     C437525  10.819  12.200   9.726 -0.1976  0.6893  0.4211
 3412UDC     C537526  10.760  12.208   9.588  0.4090 -0.2374  0.6152
 3412UDC     C637527  10.661  12.321   9.556  0.0446 -0.8769  0.7079
 3412UDC     C737528  10.638  12.361   9.405 -0.2538 -0.5175 -0.4775
 3412UDC     C837529  10.562  12.259   9.316  0.4958 -0.9326 -0.3902
 3412UDC     C937530  10.519  12.274   9.169 -0.7073 -0.1895  0.1052
 3412UDC    C1037531  10.424  12.393   9.159  0.2120 -0.1789  0.9896
 3412UDC    C1137532  10.352  12.399   9.019 -0.5487  0.5134 -0.8825
 3413UDC     C137533  19.115   0.181   7.774 -1.3927 -0.6808 -0.3814
 3413UDC     C237534  19.117   0.179   7.931 -0.2170 -0.4200 -0.2683
 3413UDC     C337535  19.034   0.063   7.977  1.7173 -0.2111  0.3405
 3413UDC     C437536  19.006   0.046   8.125  0.6031 -0.6830  0.5979
 3413UDC     C537537  19.130   0.058   8.214 -0.3833  0.4835 -1.5604
 3413UDC     C637538  19.080   0.047   8.362 -0.3669 -0.2884  0.3811
 3413UDC     C737539  19.048  -0.103   8.396 -0.6666  0.6658 -0.8646
 3413UDC     C837540  18.957  -0.150   8.510 -0.3662 -0.5624 -0.0600
 3413UDC     C937541  18.977  -0.292   8.571 -0.4870  0.5350  0.0302
 3413UDC    C1037542  18.850  -0.327   8.650 -0.1104  0.5907  0.8354
 3413UDC    C1137543  18.832  -0.477   8.686  0.1534 -0.2869 -0.0377
 3414UDC     C137544  18.011  12.557  18.473 -0.1702  0.2588 -0.7111
 3414UDC     C237545  18.009  12.657  18.362 -0.4710  0.6320 -0.4305
 3414UDC     C337546  17.958  12.599  18.233  2.0520 -0.6398 -0.0612
 3414UDC     C437547  17.986  12.677  18.102 -0.3046  0.6743 -0.5463
 3414UDC     C537548  17.963  12.603  17.964 -0.1317 -0.0772 -0.0077
 3414UDC     C637549  17.980  12.688  17.842 -0.0566  0.1808 -0.7182
 3414UDC     C737550  17.846  12.712  17.767 -0.2593 -0.6259  0.3346
 3414UDC     C837551  17.861  12.758  17.620  0.2800 -0.3498  0.5638
 3414UDC     C937552  17.729  12.763  17.540 -0.3918  0.0549  0.8494
 3414UDC    C1037553  17.617  12.845  17.612  0.2016  0.5827 -0.3512
 3414UDC    C1137554  17.474  12.814  17.578  0.4431  0.6456  0.3905
 3415UDC     C137555   6.675  12.370  17.566  0.0445 -0.1170 -0.7551
 3415UDC     C237556   6.744  12.237  17.577  0.5490  0.4968 -0.1060
 3415UDC     C337557   6.808  12.197  17.708 -0.2317 -0.5343 -0.9295
 3415UDC     C437558   6.824  12.048  17.740 -0.1524  0.9869 -0.4489
 3415UDC     C537559   6.964  11.997  17.709 -0.0078 -0.3001  0.1123
 3415UDC     C637560   6.981  11.847  17.732  0.3399  0.0652  1.0630
 3415UDC     C737561   6.911  11.758  17.628  0.0821  0.6842  1.3828
 3415UDC     C837562   6.897  11.609  17.653 -0.1838 -0.4956 -0.0009
 3415UDC     C937563   7.022  11.553  17.708  1.7843 -0.6436 -0.9223
 3415UDC    C1037564   7.025  11.402  17.753 -0.8059 -0.2066  0.4429
 3415UDC    C1137565   7.113  11.376  17.880 -0.2780  0.2582 -0.6831
 3416UDC     C137566   5.294  19.455  19.953 -0.0286 -0.4937  1.2596
 3416UDC     C237567   5.385  19.577  19.957  1.0334  0.1310  0.0117
 3416UDC     C337568   5.385  19.653  20.090  0.0481 -0.6324  0.7614
 3416UDC     C437569   5.399  19.801  20.082  0.1671  0.0728 -0.9624
 3416UDC     C537570   5.295  19.870  19.986  0.2985  0.2872 -0.7986
 3416UDC     C637571   5.312  20.018  19.988  1.3358 -1.7584 -0.1867
 3416UDC     C737572   5.270  20.074  20.126  0.2719  0.5460  0.3963
 3416UDC     C837573   5.289  20.222  20.100 -1.2006  0.2984 -1.3991
 3416UDC     C937574   5.290  20.311  20.222 -0.7808 -0.7401 -1.0828
 3416UDC    C1037575   5.378  20.434  20.196 -0.0882 -0.8132 -0.0411
 3416UDC    C1137576   5.530  20.401  20.164  0.4724 -0.3080  0.6854
 3417UDC     C137577  19.704   4.280   0.108 -0.5140  1.1277  0.7061
 3417UDC     C237578  19.807   4.359   0.200 -0.1243 -0.6224  0.0579
 3417UDC     C337579  19.744   4.490   0.247  0.3512 -0.5014  0.5749
 3417UDC     C437580  19.789   4.633   0.205  0.3937  0.0269  0.3791
 3417UDC     C537581  19.935   4.685   0.220  0.1436 -0.6460 -0.7731
 3417UDC     C637582  19.982   4.683   0.362 -0.3110 -0.4883 -0.2778
 3417UDC     C737583  20.119   4.623   0.363  1.3656 -0.4069 -0.1206
 3417UDC     C837584  20.174   4.639   0.501 -0.6999  0.0315  0.5869
 3417UDC     C937585  20.140   4.792   0.537 -0.1493 -0.0488  0.6696
 3417UDC    C1037586  20.197   4.844   0.670 -1.2732  0.2768 -0.3608
 3417UDC    C1137587  20.164   4.750   0.789  0.7823 -0.2758  0.6469
 3418UDC     C137588   6.992  13.552   3.810  0.2484 -0.2261  0.1659
 3418UDC     C237589   7.014  13.659   3.914 -0.2794  0.0145 -0.3726
 3418UDC     C337590   7.154  13.631   3.966  0.0354 -0.4403 -1.4048
 3418UDC     C437591   7.213  13.748   4.041  1.0150 -0.1829 -0.2906
 3418UDC     C537592   7.364  13.743   4.052 -0.5787  0.1010 -0.0991
 3418UDC     C637593   7.411  13.629   4.141 -1.2715 -0.2213 -0.2939
 3418UDC     C737594   7.551  13.657   4.212 -0.5404 -0.5435 -0.6921
 3418UDC     C837595   7.525  13.739   4.331 -0.2326  0.1413 -0.8387
 3418UDC     C937596   7.626  13.679   4.436  0.0013 -0.0112 -0.6111
 3418UDC    C1037597   7.647  13.790   4.542  0.6820  0.4665 -0.4216
 3418UDC    C1137598   7.750  13.765   4.656  0.2425  0.0138  0.7610
 3419UDC     C137599   5.055   8.746  14.048 -0.1091  0.6129 -0.8528
 3419UDC     C237600   5.075   8.732  14.204 -0.2819 -0.0024  0.5007
 3419UDC     C337601   5.215   8.665  14.236 -0.4355  0.3532  1.3337
 3419UDC     C437602   5.220   8.616  14.378 -0.8488 -0.1632 -0.3670
 3419UDC     C537603   5.367   8.561  14.409  1.5071 -0.4256  0.8658
 3419UDC     C637604   5.401   8.481  14.534  0.2448  0.4250 -1.5159
 3419UDC     C737605   5.429   8.555  14.671 -0.1980 -0.4540  0.4193
 3419UDC     C837606   5.518   8.681  14.650 -0.0567 -0.3360  0.3796
 3419UDC     C937607   5.565   8.731  14.785  0.9567  0.6961 -0.4054
 3419UDC    C1037608   5.589   8.883  14.802  0.1370  0.8485  0.6888
 3419UDC    C1137609   5.461   8.955  14.857  0.3318  0.1626 -0.0585
 3420UDC     C137610   3.155   8.482  17.824 -0.3273  0.2384  0.0015
 3420UDC     C237611   3.105   8.447  17.965  0.4042 -0.2602  0.9501
 3420UDC     C337612   2.964   8.508  17.994 -0.0756  1.3908  0.6758
 3420UDC     C437613   2.946   8.666  18.008 -0.0130  0.9210 -1.0289
 3420UDC     C537614   2.798   8.696  17.999  1.4221 -0.9081 -0.1557
 3420UDC     C637615   2.753   8.826  18.075 -0.2735 -0.2946 -0.0919
 3420UDC     C737616   2.795   8.829  18.228 -0.4391 -0.3388 -0.0333
 3420UDC     C837617   2.748   8.714  18.324  0.5106  0.6282  0.5927
 3420UDC     C937618   2.770   8.733  18.474 -0.3606 -0.0552 -0.0925
 3420UDC    C1037619   2.713   8.631  18.572  0.2872 -0.1092 -0.2370
 3420UDC    C1137620   2.570   8.666  18.608 -0.7292 -0.3716  0.2129
 3421UDC     C137621  16.158   8.912  17.191  0.3654  0.5644 -0.0768
 3421UDC     C237622  16.175   8.904  17.344  0.0877  0.3805 -1.6976
 3421UDC     C337623  16.086   8.995  17.440  0.4430  1.3086  0.6868
 3421UDC     C437624  16.082   9.142  17.384 -0.2337  0.1727  0.6086
 3421UDC     C537625  16.036   9.235  17.494 -0.4103  0.2793  0.2232
 3421UDC     C637626  16.129   9.195  17.618  0.2411 -0.4552  0.8603
 3421UDC     C737627  16.061   9.259  17.742 -0.5058 -0.6368 -0.0017
 3421UDC     C837628  16.167   9.285  17.851  0.3438 -0.2908 -1.2259
 3421UDC     C937629  16.258   9.409  17.846  0.1652 -0.3903  0.4420
 3421UDC    C1037630  16.337   9.448  17.973 -0.4437  0.8241  0.0433
 3421UDC    C1137631  16.248   9.530  18.072 -1.0863  0.7577  0.1449
 3422UDC     C137632  16.481  13.929  15.757  0.5009  0.1415  0.1458
 3422UDC     C237633  16.454  13.873  15.894  0.1331 -0.4888  0.0377
 3422UDC     C337634  16.516  13.947  16.016 -0.3369 -0.5448  0.3466
 3422UDC     C437635  16.501  14.097  16.006 -0.6431 -1.0001  0.5225
 3422UDC     C537636  16.528  14.159  16.146 -0.2725 -0.3533 -0.1146
 3422UDC     C637637  16.543  14.307  16.137  0.4857 -0.5549 -0.0480
 3422UDC     C737638  16.551  14.380  16.270  0.0836 -0.0531  1.0390
 3422UDC     C837639  16.449  14.468  16.334  1.4473  1.3380  0.4039
 3422UDC     C937640  16.305  14.405  16.325  1.5018  0.2873  0.8852
 3422UDC    C1037641  16.202  14.493  16.391 -0.6098 -1.0343 -0.5117
 3422UDC    C1137642  16.209  14.496  16.549  0.4288 -1.1084 -0.0255
 3423UDC     C137643   5.374   2.782   1.554  0.6911 -0.0116  0.2487
 3423UDC     C237644   5.501   2.847   1.578  0.1980  0.3238  0.1263
 3423UDC     C337645   5.520   2.981   1.503  1.4730 -0.0512 -0.5584
 3423UDC     C437646   5.383   3.064   1.503 -0.6467  0.0629 -1.0815
 3423UDC     C537647   5.366   3.165   1.394  0.2803  0.3748 -0.1693
 3423UDC     C637648   5.484   3.266   1.383  0.6156  0.6226 -0.2535
 3423UDC     C737649   5.468   3.401   1.310 -0.1414 -0.3303  0.2824
 3423UDC     C837650   5.611   3.451   1.267  1.3049  1.4436 -0.5370
 3423UDC     C937651   5.694   3.489   1.387  0.5505 -0.2480  0.7585
 3423UDC    C1037652   5.839   3.525   1.366 -0.3699 -0.7375  0.5299
 3423UDC    C1137653   5.905   3.576   1.501  0.1155 -0.7657 -0.1288
 3424UDC     C137654  19.051  17.016  12.352  0.4564  0.4203 -0.5387
 3424UDC     C237655  19.034  16.906  12.249 -0.0552 -1.3210  0.2733
 3424UDC     C337656  19.078  16.951  12.109  1.0081  0.0893  0.0659
 3424UDC     C437657  19.192  17.052  12.118  0.7088  0.8070  0.2564
 3424UDC     C537658  19.238  17.109  11.981  0.8070 -0.0248 -0.7829
 3424UDC     C637659  19.126  17.176  11.905  0.6079 -0.1347  0.9348
 3424UDC     C737660  19.155  17.232  11.762  1.2420  0.3922 -0.5373
 3424UDC     C837661  19.171  17.116  11.658 -1.5383 -1.0805 -0.0524
 3424UDC     C937662  19.195  17.182  11.520 -0.4646 -0.2285 -0.7737
 3424UDC    C1037663  19.166  17.070  11.423  0.4308 -0.6367 -0.3304
 3424UDC    C1137664  19.245  17.079  11.290 -0.6568  0.2238 -0.4060
 3425UDC     C137665   7.469   9.394   5.078 -0.9061  0.2280  1.0358
 3425UDC     C237666   7.482   9.526   4.994 -0.5102  0.8089  0.0988
 3425UDC     C337667   7.616   9.566   4.939 -0.0305 -1.1594 -0.0750
 3425UDC     C437668   7.721   9.459   4.902 -0.8007 -0.5087 -0.5006
 3425UDC     C537669   7.830   9.528   4.823 -1.5843 -0.5638  0.1185
 3425UDC     C637670   7.955   9.459   4.771  0.6036  0.0242  0.5767
 3425UDC     C737671   8.061   9.457   4.883 -0.1195 -0.0946 -0.4434
 3425UDC     C837672   8.199   9.387   4.842 -0.4731 -0.3330 -0.4061
 3425UDC     C937673   8.312   9.411   4.946  0.0135  0.1706  1.5654
 3425UDC    C1037674   8.457   9.401   4.888 -0.4919 -1.0251 -0.7304
 3425UDC    C1137675   8.569   9.449   4.976  1.9681 -1.2429  0.6421
 3426UDC     C137676   2.554   1.169   8.298 -0.7866  0.6860 -0.1760
 3426UDC     C237677   2.682   1.250   8.342  0.3854  0.2679  0.8172
 3426UDC     C337678   2.774   1.184   8.448  0.8243 -0.0259 -0.1995
 3426UDC     C437679   2.724   1.212   8.586  0.1621 -0.3169 -0.0316
 3426UDC     C537680   2.662   1.359   8.576 -0.1240  0.1567 -0.4914
 3426UDC     C637681   2.629   1.430   8.711 -0.0789 -0.2430  0.6130
 3426UDC     C737682   2.582   1.573   8.683 -0.8372 -1.0890  0.8034
 3426UDC     C837683   2.563   1.652   8.812  0.1329  0.0716 -0.5680
 3426UDC     C937684   2.580   1.806   8.774 -1.2310  0.4096 -0.4316
 3426UDC    C1037685   2.725   1.860   8.775 -0.2310  0.4301 -0.6054
 3426UDC    C1137686   2.717   2.009   8.729  0.0994  1.0927 -0.7243
 3427UDC     C137687  15.806  17.432   4.979 -0.2677 -0.3163  0.3491
 3427UDC     C237688  15.896  17.446   5.107  0.4536  1.2709 -0.5237
 3427UDC     C337689  15.950  17.586   5.108 -0.6535  0.6247  0.0375
 3427UDC     C437690  16.020  17.630   5.234 -0.4153 -0.0271  0.1257
 3427UDC     C537691  16.080  17.768   5.202 -0.0161  0.7079 -0.0945
 3427UDC     C637692  16.049  17.880   5.297  0.2777 -0.4821  0.1919
 3427UDC     C737693  16.091  18.022   5.271 -0.6794 -0.4165 -1.1851
 3427UDC     C837694  15.998  18.126   5.346 -0.2338  0.1342  0.3826
 3427UDC     C937695  16.060  18.260   5.356 -1.5896 -0.8013  0.5849
 3427UDC    C1037696  16.151  18.292   5.476 -0.4447  0.1212 -0.3665
 3427UDC    C1137697  16.065  18.285   5.598 -0.2627 -0.6643 -0.0657
 3428UDC     C137698   3.421   2.673  15.767  0.7024 -0.0622  0.6563
 3428UDC     C237699   3.303   2.708  15.852 -0.2565  0.3550  0.3125
 3428UDC     C337700   3.352   2.725  15.994 -0.3021  0.6062 -0.4675
 3428UDC     C437701   3.423   2.594  16.046 -0.0195 -0.5334 -0.1653
 3428UDC     C537702   3.453   2.600  16.201  0.1490  0.7977  0.1360
 3428UDC     C637703   3.586   2.532  16.241  0.1598 -0.0808 -0.3281
 3428UDC     C737704   3.567   2.418  16.346 -0.0775  0.8325 -0.1838
 3428UDC     C837705   3.695   2.381  16.422  0.1383  0.8280 -0.5371
 3428UDC     C937706   3.641   2.295  16.534  0.6803  0.3983  1.0268
 3428UDC    C1037707   3.639   2.147  16.518 -0.1037 -0.1945  0.1815
 3428UDC    C1137708   3.556   2.066  16.617  0.5328 -0.0838  0.3899
 3429UDC     C137709   9.160   9.327   2.998  0.5225  1.5156  0.3137
 3429UDC     C237710   9.192   9.466   3.060 -0.5067 -0.2690 -0.4284
 3429UDC     C337711   9.134   9.591   2.995 -0.0539  0.4570  0.5088
 3429UDC     C437712   9.185   9.729   3.025 -0.6874 -0.7123  0.7981
 3429UDC     C537713   9.096   9.836   2.959 -0.5489  0.3940 -0.4426
 3429UDC     C637714   9.170   9.910   2.846 -0.4021  0.4030 -0.3403
 3429UDC     C737715   9.271  10.025   2.886 -0.3195  0.3673 -0.6015
 3429UDC     C837716   9.324  10.069   2.750  0.5618  0.6070 -0.1753
 3429UDC     C937717   9.205  10.118   2.664 -0.2372  0.3579  0.3946
 3429UDC    C1037718   9.220  10.132   2.508 -0.6026 -0.6528 -0.4852
 3429UDC    C1137719   9.255  10.272   2.449 -1.0410 -1.3017  0.7529
 3430UDC     C137720   4.762  15.235   0.099 -0.0136 -0.0507  0.0601
 3430UDC     C237721   4.911  15.261   0.103  0.3080 -0.4875  0.3185
 3430UDC     C337722   4.977  15.132   0.132 -0.5241  0.6748  1.1221
 3430UDC     C437723   5.114  15.151   0.200  0.3154  0.5529 -0.0220
 3430UDC     C537724   5.163  15.012   0.253 -0.0787  0.9284 -0.2972
 3430UDC     C637725   5.292  15.037   0.333  0.0138  0.2583  0.4113
 3430UDC     C737726   5.370  14.934   0.407 -0.4415  0.1366  0.2060
 3430UDC     C837727   5.505  15.004   0.450 -0.2900  0.1618 -1.3778
 3430UDC     C937728   5.541  14.987   0.602 -0.0486 -0.8370 -0.5989
 3430UDC    C1037729   5.682  15.023   0.645  0.8841 -0.4223 -0.1720
 3430UDC    C1137730   5.708  15.024   0.798  0.5108 -0.3759  1.3288
 3431UDC     C137731   7.878   8.555  17.346  0.2324 -0.3172 -1.1995
 3431UDC     C237732   7.763   8.499  17.278  0.4218 -0.1668  0.2757
 3431UDC     C337733   7.780   8.497  17.126  0.2564 -0.5649 -0.7130
 3431UDC     C437734   7.840   8.366  17.063  0.0512  0.3672 -0.5095
 3431UDC     C537735   7.877   8.375  16.916 -0.1221 -0.1786 -0.0708
 3431UDC     C637736   7.999   8.454  16.872 -1.0809 -0.0768  0.3801
 3431UDC     C737737   8.133   8.387  16.847  0.9027 -0.6823 -0.7000
 3431UDC     C837738   8.121   8.282  16.740 -0.4842 -0.5583  0.0127
 3431UDC     C937739   8.254   8.228  16.691 -0.4736  0.0138 -0.5802
 3431UDC    C1037740   8.282   8.088  16.744 -1.2425  0.3348  1.0004
 3431UDC    C1137741   8.417   8.044  16.694  0.1573  0.1571 -0.2700
 3432UDC     C137742   7.106  12.237  12.850  0.9302 -1.1819 -1.2784
 3432UDC     C237743   7.137  12.158  12.721  0.0492 -0.5270  0.0432
 3432UDC     C337744   7.261  12.063  12.732  0.5003  0.4879  0.1119
 3432UDC     C437745   7.281  11.982  12.601  0.8788 -1.6703 -0.0127
 3432UDC     C537746   7.356  12.037  12.477 -0.5699  0.6867 -0.7101
 3432UDC     C637747   7.372  11.935  12.366 -0.0107  0.1816  1.3076
 3432UDC     C737748   7.456  11.995  12.258  0.1964 -0.1095  0.3291
 3432UDC     C837749   7.501  11.883  12.164 -1.9991  0.0716 -0.5320
 3432UDC     C937750   7.522  11.747  12.225 -0.8023 -0.7016 -0.0854
 3432UDC    C1037751   7.582  11.639  12.132  0.2980  0.4451  0.1009
 3432UDC    C1137752   7.620  11.507  12.198 -0.2997  0.6734  0.7281
 3433UDC     C137753  19.411   0.419   0.283  0.2709 -0.0719 -0.3326
 3433UDC     C237754  19.551   0.369   0.291 -0.0929 -0.2657 -1.0731
 3433UDC     C337755  19.576   0.278   0.172 -0.5335 -0.0634 -0.5053
 3433UDC     C437756  19.714   0.205   0.176 -0.6144  0.4347  0.5957
 3433UDC     C537757  19.770   0.148   0.041  0.2648 -0.7602  1.1714
 3433UDC     C637758  19.906   0.079   0.034  0.6990  1.8929  0.2791
 3433UDC     C737759  19.934  -0.073   0.062  0.0772 -0.3239 -0.7277
 3433UDC     C837760  20.077  -0.111   0.103  0.2742  1.2969  0.2659
 3433UDC     C937761  20.170  -0.140  -0.018 -0.3888 -0.4587  0.1044
 3433UDC    C1037762  20.323  -0.132   0.020  0.7308 -0.0140 -0.1525
 3433UDC    C1137763  20.387  -0.146  -0.117 -0.4512  0.0214  0.1024
 3434UDC     C137764  19.515   0.027   0.937 -0.0753 -0.9308 -0.3441
 3434UDC     C237765  19.489   0.174   0.884 -0.7882  0.3205 -0.1054
 3434UDC     C337766  19.405   0.259   0.985  1.1614 -0.0383  0.5280
 3434UDC     C437767  19.493   0.290   1.108 -0.3092 -0.5439  1.7072
 3434UDC     C537768  19.608   0.394   1.101 -0.8250  0.8849  0.0738
 3434UDC     C637769  19.645   0.453   1.232 -1.2215 -0.4224 -0.2524
 3434UDC     C737770  19.649   0.609   1.226  0.0502  0.0984  0.7685
 3434UDC     C837771  19.739   0.668   1.118 -0.9642  0.0299 -0.3183
 3434UDC     C937772  19.884   0.622   1.090  0.5215 -0.5706 -0.4097
 3434UDC    C1037773  19.978   0.709   1.011  0.2311 -0.0750  0.4835
 3434UDC    C1137774  20.010   0.838   1.079  0.9107  0.1938 -0.4363
 3435UDC     C137775  10.849   0.489   3.329 -0.6707  0.2688  0.0580
 3435UDC     C237776  10.970   0.394   3.300 -0.3057  1.3126  0.0570
 3435UDC     C337777  11.105   0.457   3.359 -0.0720  0.0866 -0.4741
 3435UDC     C437778  11.222   0.382   3.299  0.3365 -0.5177  0.3084
 3435UDC     C537779  11.327   0.457   3.371 -0.3617  0.5201  0.0429
 3435UDC     C637780  11.450   0.368   3.376 -0.4449 -1.1849 -0.1497
 3435UDC     C737781  11.560   0.403   3.474 -1.1354 -0.5366  0.4473
 3435UDC     C837782  11.686   0.315   3.489 -0.7032 -0.4710  0.4641
 3435UDC     C937783  11.797   0.348   3.386  0.8652 -0.5305  0.6878
 3435UDC    C1037784  11.918   0.434   3.438 -0.3835  0.4224  0.3575
 3435UDC    C1137785  11.981   0.357   3.558 -0.3629  0.6608  0.6378
 3436UDC     C137786   5.215  19.931   6.470  0.0676 -0.1336  0.0656
 3436UDC     C237787   5.252  20.023   6.588  0.0707 -1.0453 -1.6032
 3436UDC     C337788   5.159  19.994   6.702 -0.2398  0.5682  0.8674
 3436UDC     C437789   5.011  19.975   6.649  0.5498  0.4650 -0.7846
 3436UDC     C537790   4.896  19.972   6.758  0.2730 -0.6378  0.3082
 3436UDC     C637791   4.745  19.985   6.724 -0.3851  0.2266 -0.2413
 3436UDC     C737792   4.655  19.973   6.845 -0.0158  0.1497  0.2090
 3436UDC     C837793   4.509  20.041   6.831 -0.6215  0.1902 -0.3809
 3436UDC     C937794   4.521  20.193   6.853  1.3180 -0.4418 -0.5272
 3436UDC    C1037795   4.384  20.264   6.887  0.1103  0.1972  0.0904
 3436UDC    C1137796   4.381  20.420   6.888 -0.0203  0.4225 -0.5963
 3437UDC     C137797  18.218  13.774   2.153 -0.2076 -0.3174  0.1944
 3437UDC     C237798  18.213  13.843   2.292 -0.5012 -0.3968  0.1559
 3437UDC     C337799  18.320  13.837   2.403 -0.5477  0.4215  0.3401
 3437UDC     C437800  18.283  13.840   2.549  0.8857  0.4340 -0.4323
 3437UDC     C537801  18.401  13.907   2.620  0.9151 -0.2579  1.2663
 3437UDC     C637802  18.474  14.013   2.540 -0.0262 -1.0005  1.1451
 3437UDC     C737803  18.610  14.047   2.603 -0.5250 -0.7117 -0.8070
 3437UDC     C837804  18.683  14.161   2.535 -0.8439 -1.0570  0.0361
 3437UDC     C937805  18.587  14.282   2.511 -0.5273 -0.0742 -0.8788
 3437UDC    C1037806  18.682  14.391   2.498 -0.7327 -0.5104  1.2391
 3437UDC    C1137807  18.723  14.372   2.350 -0.5319  0.1902 -0.5504
 3438UDC     C137808   3.366   8.289  14.442  0.3379  0.9376  0.1492
 3438UDC     C237809   3.503   8.277  14.368 -0.6527  0.4205 -0.0257
 3438UDC     C337810   3.504   8.337  14.233  0.3660 -0.8375  1.3528
 3438UDC     C437811   3.496   8.497  14.224 -0.5487 -0.8544 -0.4613
 3438UDC     C537812   3.452   8.574  14.103  0.6595  0.0351 -0.6803
 3438UDC     C637813   3.318   8.516  14.042  0.1916  0.1100  0.6021
 3438UDC     C737814   3.313   8.565  13.898 -1.1548 -0.4910  0.7351
 3438UDC     C837815   3.201   8.663  13.873  0.1900 -0.1318 -0.0650
 3438UDC     C937816   3.196   8.677  13.723 -0.5772 -0.5574  0.1486
 3438UDC    C1037817   3.281   8.777  13.648 -0.1736 -0.2536 -0.5312
 3438UDC    C1137818   3.235   8.774  13.505 -0.2355 -0.3537  0.8972
 3439UDC     C137819   5.190   2.875  11.450 -0.0696  0.8388  0.2663
 3439UDC     C237820   5.243   2.925  11.314  1.0100  0.7630 -0.3836
 3439UDC     C337821   5.324   2.817  11.244 -0.0394 -1.1334  1.4175
 3439UDC     C437822   5.373   2.870  11.107 -0.3137  0.9881 -0.2977
 3439UDC     C537823   5.459   2.768  11.028  0.3837 -0.0765  0.4074
 3439UDC     C637824   5.608   2.780  11.052 -0.0843 -0.2196  0.2762
 3439UDC     C737825   5.656   2.732  11.192 -0.6060  0.3393 -0.4057
 3439UDC     C837826   5.807   2.755  11.203 -0.6844  0.5951  0.7055
 3439UDC     C937827   5.874   2.746  11.343  0.0007 -0.1103  0.9671
 3439UDC    C1037828   6.006   2.818  11.379  0.2982 -0.1457 -0.1377
 3439UDC    C1137829   6.008   2.851  11.535 -1.1275  0.5722 -0.4093
 3440UDC     C137830   2.037   1.273   8.337  0.3893  0.0273  0.5172
 3440UDC     C237831   2.188   1.283   8.304 -0.4385 -0.4538  0.0959
 3440UDC     C337832   2.256   1.353   8.416  0.0010  0.0670  0.7888
 3440UDC     C437833   2.254   1.513   8.425  0.7254  0.7580  0.9982
 3440UDC     C537834   2.324   1.601   8.311  0.3217  0.3259 -0.2939
 3440UDC     C637835   2.476   1.586   8.310  0.1128  0.1876  0.8536
 3440UDC     C737836   2.555   1.679   8.213 -0.4581  1.3928 -0.3330
 3440UDC     C837837   2.704   1.693   8.259  0.8813  0.3590 -0.3815
 3440UDC     C937838   2.794   1.570   8.239 -0.4142 -0.1407  0.1984
 3440UDC    C1037839   2.935   1.594   8.282 -0.2335  1.1481  0.0706
 3440UDC    C1137840   2.996   1.458   8.316 -0.6529  0.2527 -0.0291
 3441UDC     C137841  16.835  19.880  14.327  0.2605 -0.1674 -0.9998
 3441UDC     C237842  16.956  19.940  14.395 -0.3121  0.4462 -0.4650
 3441UDC     C337843  17.002  19.840  14.507 -1.4535  0.0092  0.2494
 3441UDC     C437844  17.148  19.868  14.544  0.5490  0.3006 -0.1255
 3441UDC     C537845  17.204  19.740  14.617  0.7168 -0.0067  0.1565
 3441UDC     C637846  17.350  19.701  14.578 -0.4252  0.1742  1.2481
 3441UDC     C737847  17.392  19.551  14.575 -0.8551  1.0880 -0.2932
 3441UDC     C837848  17.543  19.522  14.547 -0.9173  0.8429 -0.4429
 3441UDC     C937849  17.546  19.371  14.516 -0.7163 -0.1671 -0.3014
 3441UDC    C1037850  17.554  19.334  14.369  1.0787  0.5657 -0.4290
 3441UDC    C1137851  17.433  19.242  14.342 -0.3069 -1.0409 -0.4798
 3442UDC     C137852   9.128  13.110   1.899  0.1421  0.8385  0.2676
 3442UDC     C237853   9.248  13.011   1.891  0.4450 -0.0731  0.2317
 3442UDC     C337854   9.248  12.864   1.957 -0.9947 -0.8340  0.2227
 3442UDC     C437855   9.373  12.790   2.012  0.2824  0.6452  0.9324
 3442UDC     C537856   9.441  12.861   2.125  0.0269  0.1818 -0.7463
 3442UDC     C637857   9.342  12.903   2.239  0.8030  0.3189 -0.9044
 3442UDC     C737858   9.414  12.961   2.364  1.7391 -0.6893  0.0634
 3442UDC     C837859   9.482  13.088   2.320 -1.2799  0.1047  0.5338
 3442UDC     C937860   9.377  13.187   2.261 -0.1170 -1.2921  0.1373
 3442UDC    C1037861   9.398  13.340   2.230 -0.0123 -0.9446 -0.3805
 3442UDC    C1137862   9.275  13.430   2.191  0.5397  0.6913 -0.0865
 3443UDC     C137863   5.378   9.061  13.949  0.1384  0.2588  0.3743
 3443UDC     C237864   5.485   9.142  13.880  0.6128 -0.0634 -0.9393
 3443UDC     C337865   5.448   9.278  13.820  0.8657  0.8001  0.3972
 3443UDC     C437866   5.565   9.350  13.758 -0.9825 -0.4899  0.5105
 3443UDC     C537867   5.639   9.419  13.877  0.2640  0.0799 -0.2272
 3443UDC     C637868   5.741   9.531  13.850  0.4643  0.1023  0.7720
 3443UDC     C737869   5.840   9.548  13.963 -1.4832 -0.3355 -1.4212
 3443UDC     C837870   5.832   9.676  14.056 -0.6331 -0.6144  0.3463
 3443UDC     C937871   5.972   9.746  14.042 -0.3668  0.4989 -0.0682
 3443UDC    C1037872   5.958   9.875  14.116  0.8698 -0.5968  0.3798
 3443UDC    C1137873   6.033  10.002  14.057  0.4147  0.4449  0.2757
 3444UDC     C137874   7.244  10.245   0.418  1.2722  0.7737 -0.3526
 3444UDC     C237875   7.330  10.368   0.436  0.3228  0.4470  0.1612
 3444UDC     C337876   7.322  10.420   0.575  0.1444 -0.8848  1.3517
 3444UDC     C437877   7.195  10.503   0.608  0.2492  0.0602  1.2233
 3444UDC     C537878   7.229  10.654   0.619 -0.2879 -0.1592 -0.0740
 3444UDC     C637879   7.347  10.662   0.716  1.3544 -0.1405 -0.0352
 3444UDC     C737880   7.370  10.810   0.750  0.9166 -0.3058  0.8285
 3444UDC     C837881   7.470  10.825   0.854 -0.5401 -0.5384 -0.8792
 3444UDC     C937882   7.482  10.742   0.977 -0.2981  0.0036 -0.7525
 3444UDC    C1037883   7.618  10.684   1.005  0.1046 -0.8848 -0.9293
 3444UDC    C1137884   7.623  10.603   1.134 -1.4694 -0.4258 -0.9736
 3445UDC     C137885  17.653   8.194  17.106 -0.6461  0.8062 -0.2375
 3445UDC     C237886  17.616   8.338  17.139 -0.7649 -0.1192 -0.3717
 3445UDC     C337887  17.514   8.394  17.033  0.1777  0.6793  0.6500
 3445UDC     C437888  17.449   8.528  17.073  0.4143  0.5607 -0.8222
 3445UDC     C537889  17.390   8.614  16.961  1.1342 -0.4704 -0.2553
 3445UDC     C637890  17.316   8.741  17.008 -0.3445 -0.2304  0.5321
 3445UDC     C737891  17.176   8.701  17.057  0.2562  0.5163 -0.1724
 3445UDC     C837892  17.067   8.802  17.029 -0.1964  0.1423 -0.5707
 3445UDC     C937893  17.044   8.911  17.140  0.4264 -0.1760  0.2348
 3445UDC    C1037894  17.012   8.872  17.281 -0.9774 -0.7010  0.6172
 3445UDC    C1137895  17.026   9.003  17.360 -0.2533  0.0855 -0.6890
 3446UDC     C137896   2.614   4.364   0.706  0.3002 -0.6277 -0.1115
 3446UDC     C237897   2.745   4.404   0.630  0.0362 -0.3761 -0.4493
 3446UDC     C337898   2.862   4.302   0.653  0.1946  0.2936  0.3906
 3446UDC     C437899   3.004   4.365   0.642 -0.8453 -1.4231 -1.3496
 3446UDC     C537900   3.043   4.381   0.492  0.5516 -0.0407  0.3048
 3446UDC     C637901   3.156   4.290   0.444  0.7815  0.8522 -0.5822
 3446UDC     C737902   3.145   4.288   0.293  0.7161  0.5047 -2.2070
 3446UDC     C837903   3.027   4.213   0.234 -0.1352 -0.4677  0.6756
 3446UDC     C937904   2.975   4.276   0.104 -0.7938 -0.0030  0.4699
 3446UDC    C1037905   2.884   4.170   0.042  0.3039 -0.9635 -0.5906
 3446UDC    C1137906   2.753   4.137   0.123 -0.0265 -0.4555 -0.4119
 3447UDC     C137907   0.437   2.051  16.199 -0.9168 -0.3488 -0.8368
 3447UDC     C237908   0.415   1.920  16.108  1.0222  0.0624 -0.3338
 3447UDC     C337909   0.283   1.920  16.027  0.6795  1.1872 -0.1025
 3447UDC     C437910   0.278   1.999  15.890  0.4582  0.4540 -0.2805
 3447UDC     C537911   0.331   1.907  15.792  0.3850 -0.1709  0.4710
 3447UDC     C637912   0.344   1.989  15.657 -0.3329  0.2572 -0.1391
 3447UDC     C737913   0.338   1.881  15.550  0.8395  0.4198  0.4969
 3447UDC     C837914   0.467   1.801  15.531  0.0128  0.5037  0.2260
 3447UDC     C937915   0.469   1.673  15.435  0.1928 -0.3355 -1.0931
 3447UDC    C1037916   0.609   1.619  15.406  0.1267 -0.0222 -0.1172
 3447UDC    C1137917   0.607   1.503  15.296 -0.0432 -0.8405 -0.7683
 3448UDC     C137918   9.646  16.861  19.411 -0.2343  0.4085 -0.2080
 3448UDC     C237919   9.559  16.736  19.418 -0.5097  0.7408 -0.9050
 3448UDC     C337920   9.425  16.748  19.338  0.4796 -0.5625 -0.5167
 3448UDC     C437921   9.399  16.621  19.269  0.1231  0.0150  0.1422
 3448UDC     C537922   9.298  16.633  19.152  1.1456  0.9245 -0.6652
 3448UDC     C637923   9.265  16.499  19.082 -0.4153  0.0130  0.5921
 3448UDC     C737924   9.179  16.513  18.956  0.0798  0.3385 -0.3197
 3448UDC     C837925   9.220  16.379  18.897 -0.6159  0.3001  0.6200
 3448UDC     C937926   9.099  16.296  18.858 -0.4226 -0.6719  0.0802
 3448UDC    C1037927   9.131  16.147  18.840  0.3517  0.0815  0.3257
 3448UDC    C1137928   9.005  16.059  18.841  0.5427 -1.2266 -0.1507
 3449UDC     C137929  12.191   8.652   8.742 -1.0366  0.5542 -0.1269
 3449UDC     C237930  12.311   8.749   8.750 -0.7688 -0.3068  0.1640
 3449UDC     C337931  12.444   8.692   8.811  0.6103  0.1398 -0.9925
 3449UDC     C437932  12.514   8.804   8.889 -0.4232 -0.4325 -0.9730
 3449UDC     C537933  12.533   8.771   9.039  1.2803 -0.3048 -0.0826
 3449UDC     C637934  12.680   8.777   9.076  0.9873  0.2878  0.3401
 3449UDC     C737935  12.710   8.741   9.216  0.4230 -0.9682 -0.8284
 3449UDC     C837936  12.768   8.854   9.307 -0.4613 -0.3044 -0.0569
 3449UDC     C937937  12.786   8.825   9.455  0.3055  0.0180 -0.1136
 3449UDC    C1037938  12.772   8.939   9.558  0.6532 -0.0318  0.7173
 3449UDC    C1137939  12.851   9.064   9.519  0.5639  0.2770  0.0056
 3450UDC     C137940   4.958  15.431   0.469 -0.1000 -0.4117 -0.4834
 3450UDC     C237941   5.080  15.523   0.453 -0.3899 -0.1508  0.6792
 3450UDC     C337942   5.112  15.530   0.306  1.0524 -0.1253  0.4141
 3450UDC     C437943   5.004  15.590   0.206 -1.2087 -0.5522  0.0981
 3450UDC     C537944   5.041  15.698   0.087 -0.1458  1.0420 -0.1693
 3450UDC     C637945   5.162  15.658   0.012  0.7182 -0.6246  0.2852
 3450UDC     C737946   5.152  15.520  -0.056  0.5217  0.1745 -0.3737
 3450UDC     C837947   5.254  15.506  -0.172 -0.2686  0.7839  0.2186
 3450UDC     C937948   5.221  15.603  -0.288 -0.8867  0.3208  1.1735
 3450UDC    C1037949   5.350  15.635  -0.356  0.0799 -0.8886  0.0109
 3450UDC    C1137950   5.308  15.689  -0.499  0.4273 -0.5314  0.1883
 3451UDC     C137951  11.780  14.133  17.503 -0.6624 -0.6827  0.0281
 3451UDC     C237952  11.774  14.229  17.627 -0.1290  0.2439  0.1538
 3451UDC     C337953  11.763  14.190  17.772 -0.5468 -0.8050  0.3749
 3451UDC     C437954  11.659  14.070  17.778 -0.1691  0.8585 -0.0391
 3451UDC     C537955  11.524  14.111  17.843  1.2807 -0.1953  0.7582
 3451UDC     C637956  11.447  13.981  17.860 -0.3692 -0.8260 -0.4915
 3451UDC     C737957  11.302  13.992  17.918  0.4082  0.1289 -0.0741
 3451UDC     C837958  11.252  13.872  18.003 -0.4483  0.6834  0.0704
 3451UDC     C937959  11.105  13.853  18.029  0.2883  0.4286  0.2887
 3451UDC    C1037960  11.072  13.734  18.114 -0.0146  0.0800 -0.2841
 3451UDC    C1137961  10.922  13.710  18.122  0.1570  0.0404 -0.0749
 3452UDC     C137962   2.074   6.919  11.593 -0.0795 -0.3923 -0.1473
 3452UDC     C237963   1.956   7.025  11.611 -0.4841  0.2129  0.4800
 3452UDC     C337964   1.998   7.175  11.655  0.1886  0.5352  1.0890
 3452UDC     C437965   1.901   7.292  11.625  0.5990 -0.1895 -0.3867
 3452UDC     C537966   1.931   7.418  11.706  0.1158 -0.3751 -0.6636
 3452UDC     C637967   2.072   7.485  11.693  0.1938 -0.1175 -0.1758
 3452UDC     C737968   2.072   7.629  11.749 -1.0963  0.2392 -0.2969
 3452UDC     C837969   2.009   7.635  11.891  0.1472 -0.3803 -1.3294
 3452UDC     C937970   1.984   7.777  11.952 -0.5287 -1.3709  0.1448
 3452UDC    C1037971   1.922   7.760  12.098 -0.3603 -1.0832  0.5037
 3452UDC    C1137972   2.010   7.742  12.223 -0.3557  0.3347 -0.7646
 3453UDC     C137973   3.417  18.240  10.453  1.1678  0.7881  0.3028
 3453UDC     C237974   3.395  18.091  10.416 -0.7382 -1.5679  0.8539
 3453UDC     C337975   3.484  17.984  10.490 -0.5467 -0.1091  0.1507
 3453UDC     C437976   3.488  18.008  10.639  0.7650 -0.2409 -0.2034
 3453UDC     C537977   3.380  17.965  10.741  0.0719  0.2800 -0.0733
 3453UDC     C637978   3.440  17.982  10.882  0.1499 -0.2950 -1.1786
 3453UDC     C737979   3.359  17.997  11.009 -0.4735  1.1304 -0.5388
 3453UDC     C837980   3.368  18.129  11.082 -0.5717  0.7137  0.4313
 3453UDC     C937981   3.294  18.147  11.222  0.1250 -0.2287  0.5425
 3453UDC    C1037982   3.311  18.280  11.298  0.9072 -0.1344 -0.3371
 3453UDC    C1137983   3.451  18.342  11.299 -0.0153 -1.1416 -0.3431
 3454UDC     C137984   3.133  16.512  13.508 -0.7530 -0.4703 -0.2710
 3454UDC     C237985   3.230  16.502  13.623 -0.0533 -0.4285  0.0014
 3454UDC     C337986   3.192  16.583  13.749  0.3993 -0.7673 -0.0264
 3454UDC     C437987   3.282  16.551  13.868  0.6856 -0.6450 -0.1847
 3454UDC     C537988   3.194  16.522  13.987 -0.1562 -0.9663 -0.5791
 3454UDC     C637989   3.121  16.634  14.067 -0.7012 -0.0431 -0.1993
 3454UDC     C737990   3.034  16.567  14.171 -0.4838 -0.1608  0.3665
 3454UDC     C837991   3.021  16.657  14.293  0.6216  1.3963  0.5900
 3454UDC     C937992   2.980  16.594  14.427 -0.4832 -0.0299 -0.1419
 3454UDC    C1037993   2.945  16.711  14.529  0.7370  0.5518  0.2603
 3454UDC    C1137994   2.860  16.667  14.650  0.8192  0.3298  1.1486
 3455UDC     C137995  11.555   8.499  14.628 -0.3534  0.2455 -0.0375
 3455UDC     C237996  11.529   8.552  14.771 -1.0818  1.7784  0.6069
 3455UDC     C337997  11.374   8.580  14.788  0.0987  0.1841 -0.5913
 3455UDC     C437998  11.281   8.452  14.780 -0.5845 -0.6746 -0.0579
 3455UDC     C537999  11.136   8.491  14.769  1.3468 -0.2707 -0.5116
 3455UDC     C638000  11.038   8.380  14.727  0.7192  0.2777 -0.6558
 3455UDC     C738001  10.895   8.430  14.715  0.1483  0.1554 -0.7782
 3455UDC     C838002  10.811   8.310  14.750  0.7745  0.1701  0.8798
 3455UDC     C938003  10.897   8.182  14.752 -0.0420  0.5343 -0.4568
 3455UDC    C1038004  10.861   8.096  14.868 -0.1369  1.5575  0.0741
 3455UDC    C1138005  10.946   8.121  14.998 -0.5212  0.2988  0.5667
 3456UDC     C138006  13.870   4.524   7.980  0.5682 -0.9525 -0.7581
 3456UDC     C238007  13.955   4.601   7.874 -0.7703  0.6569 -0.4604
 3456UDC     C338008  13.930   4.609   7.720 -0.7018  0.0152 -0.9834
 3456UDC     C438009  14.041   4.692   7.653 -1.1002  1.2698  0.1411
 3456UDC     C538010  13.991   4.791   7.546 -0.5362  0.1955  0.8019
 3456UDC     C638011  14.092   4.885   7.473 -0.2664 -0.0262  0.6909
 3456UDC     C738012  14.164   4.853   7.340 -0.9146  0.2099 -0.8093
 3456UDC     C838013  14.314   4.870   7.356 -0.1397 -0.0538  1.0271
 3456UDC     C938014  14.368   5.007   7.408  0.4996  0.3733 -0.6229
 3456UDC    C1038015  14.526   5.045   7.396  0.3897  0.1210 -0.3349
 3456UDC    C1138016  14.569   5.176   7.461 -0.0975  0.2757  0.3793
 3457UDC     C138017  15.257  11.731  13.079  0.9205  0.4824  0.8708
 3457UDC     C238018  15.390  11.741  13.144  0.2065 -0.1803 -0.2249
 3457UDC     C338019  15.497  11.794  13.052 -0.0490  0.5789  1.2484
 3457UDC     C438020  15.503  11.709  12.924  0.8213 -0.2808 -0.6830
 3457UDC     C538021  15.596  11.766  12.817  0.7965  0.1034 -0.9058
 3457UDC     C638022  15.590  11.921  12.798 -0.1062  0.0526 -0.1431
 3457UDC     C738023  15.727  11.982  12.767 -1.2497  0.7837  1.1452
 3457UDC     C838024  15.803  11.906  12.648 -0.4215  0.9423 -0.3212
 3457UDC     C938025  15.939  11.968  12.646 -0.0387  0.9201 -0.2045
 3457UDC    C1038026  16.030  11.936  12.523  0.0113  0.4428 -0.7987
 3457UDC    C1138027  15.949  11.950  12.395 -0.5281  0.0455  0.4286
 3458UDC     C138028   1.941   3.095   9.736  0.0973 -0.2174 -0.0483
 3458UDC     C238029   1.981   2.963   9.805  0.1915  0.0255 -0.8499
 3458UDC     C338030   2.112   2.918   9.746 -0.4114 -1.3010 -0.2906
 3458UDC     C438031   2.184   2.808   9.829  0.6283  0.7289 -0.0789
 3458UDC     C538032   2.318   2.739   9.776  0.4689 -0.1948  0.4579
 3458UDC     C638033   2.305   2.646   9.657  0.4616 -0.7864  1.2730
 3458UDC     C738034   2.421   2.646   9.557  0.2446 -1.2026 -1.7446
 3458UDC     C838035   2.518   2.531   9.577  0.0032  0.1241 -0.1236
 3458UDC     C938036   2.455   2.391   9.546 -0.2889  0.7147 -1.3861
 3458UDC    C1038037   2.548   2.306   9.468  0.0722  0.5376  0.5946
 3458UDC    C1138038   2.585   2.346   9.321  0.0508 -0.7990  0.7525
 3459UDC     C138039  18.339   0.954   0.903 -0.8420  0.4033 -0.5577
 3459UDC     C238040  18.361   1.006   0.763 -0.2232 -0.9317 -0.5084
 3459UDC     C338041  18.465   0.914   0.692  0.4509 -0.5006 -1.0869
 3459UDC     C438042  18.520   0.952   0.555  0.0856  0.1642 -0.1336
 3459UDC     C538043  18.612   0.842   0.503  0.5726  0.7690  0.0763
 3459UDC     C638044  18.566   0.700   0.472 -0.5288  0.1396  0.4705
 3459UDC     C738045  18.687   0.598   0.440  0.4273 -0.4642 -0.8343
 3459UDC     C838046  18.663   0.450   0.428 -0.9032 -0.6614 -0.3521
 3459UDC     C938047  18.549   0.412   0.526  0.8603 -0.6144  0.2504
 3459UDC    C1038048  18.560   0.272   0.578  0.2232 -0.1920 -0.3985
 3459UDC    C1138049  18.670   0.268   0.684 -0.7402  0.2195 -0.3934
 3460UDC     C138050   1.630  18.208  13.124 -0.7782  0.0098 -0.5167
 3460UDC     C238051   1.672  18.220  13.274 -0.3337 -0.3463  0.7992
 3460UDC     C338052   1.561  18.204  13.378 -0.3573 -0.1822 -0.1021
 3460UDC     C438053   1.512  18.065  13.396  0.1233 -0.0508  0.5638
 3460UDC     C538054   1.625  17.961  13.432  1.1910  0.3977  1.6166
 3460UDC     C638055   1.621  17.833  13.339  0.0044 -1.2949  0.0629
 3460UDC     C738056   1.638  17.715  13.435 -0.7491 -0.2783 -0.6368
 3460UDC     C838057   1.712  17.584  13.393 -0.5287 -0.0038  0.1498
 3460UDC     C938058   1.759  17.510  13.517  0.8528 -0.9705 -0.1310
 3460UDC    C1038059   1.808  17.371  13.488 -1.1060  0.5039 -0.4803
 3460UDC    C1138060   1.949  17.332  13.524  0.6895  0.2032 -0.2031
 3461UDC     C138061   6.388  18.890   9.172  0.0069 -0.6611  1.2086
 3461UDC     C238062   6.456  18.920   9.039 -1.7152 -0.1793 -0.0861
 3461UDC     C338063   6.538  18.793   8.997  0.7699 -1.5010 -0.9292
 3461UDC     C438064   6.554  18.764   8.848  0.2944  1.2900 -0.0367
 3461UDC     C538065   6.648  18.642   8.818 -0.3969  0.2531 -0.8362
 3461UDC     C638066   6.583  18.502   8.836 -0.2651 -0.5782  0.4694
 3461UDC     C738067   6.533  18.427   8.713 -1.1519  0.2729  0.4051
 3461UDC     C838068   6.512  18.271   8.750 -0.8301 -0.0154  0.6284
 3461UDC     C938069   6.639  18.218   8.809 -0.4844  0.8584 -1.0161
 3461UDC    C1038070   6.613  18.119   8.920 -0.1625 -1.2402  0.8532
 3461UDC    C1138071   6.726  18.042   8.973  0.6993 -0.4847 -0.2637
 3462UDC     C138072   1.976   5.425  19.228 -0.7967 -0.5952 -0.0530
 3462UDC     C238073   2.046   5.563  19.240  1.5694  0.2999  0.0102
 3462UDC     C338074   2.155   5.608  19.137 -0.3680  0.2043  1.0623
 3462UDC     C438075   2.225   5.743  19.162 -0.1079 -0.3649  1.6688
 3462UDC     C538076   2.309   5.769  19.035  0.3458  0.7936  0.8070
 3462UDC     C638077   2.441   5.727  19.086 -1.0240 -0.6069 -0.4532
 3462UDC     C738078   2.491   5.804  19.213 -0.4444  0.0748  0.0549
 3462UDC     C838079   2.630   5.756  19.260  0.1238  0.3374  0.5001
 3462UDC     C938080   2.689   5.842  19.378 -0.6194  0.1488  0.1339
 3462UDC    C1038081   2.599   5.857  19.498 -1.7632 -0.3744 -0.2459
 3462UDC    C1138082   2.668   5.852  19.641  1.3303 -0.1530  0.6534
 3463UDC     C138083   8.384  12.531  17.078  0.5182  0.4338  0.4608
 3463UDC     C238084   8.517  12.536  17.156  0.2159 -0.8857  0.3686
 3463UDC     C338085   8.590  12.659  17.116 -1.2730 -0.0624  0.2637
 3463UDC     C438086   8.538  12.802  17.166 -0.3696 -0.2878 -0.4718
 3463UDC     C538087   8.500  12.782  17.317 -0.9209 -0.4686  0.7988
 3463UDC     C638088   8.371  12.831  17.368  0.0137 -0.2667 -0.3947
 3463UDC     C738089   8.301  12.765  17.490 -2.1494  0.0833  0.2186
 3463UDC     C838090   8.176  12.831  17.554  0.5363  0.0856  0.6167
 3463UDC     C938091   8.027  12.814  17.506 -0.0988 -1.0724 -0.1166
 3463UDC    C1038092   7.933  12.893  17.602 -0.6292  0.0813  0.8164
 3463UDC    C1138093   7.790  12.851  17.583  0.5447  0.0625 -0.9196
 3464UDC     C138094  12.498  18.031   8.655 -0.4482  0.2608 -0.5083
 3464UDC     C238095  12.390  18.135   8.616 -0.1750 -0.0089 -0.0280
 3464UDC     C338096  12.249  18.081   8.594  0.0979  0.4139  0.3924
 3464UDC     C438097  12.157  18.210   8.561 -0.0568 -0.0964  0.2643
 3464UDC     C538098  12.013  18.164   8.551  0.3296  0.6696  0.1050
 3464UDC     C638099  11.897  18.263   8.520  0.3213  0.5536  0.6061
 3464UDC     C738100  11.764  18.197   8.483  0.4712  0.1281  0.9457
 3464UDC     C838101  11.644  18.288   8.516 -0.0526 -0.1757  0.0294
 3464UDC     C938102  11.508  18.219   8.488  0.4007 -1.3155  0.3844
 3464UDC    C1038103  11.388  18.306   8.439 -0.3239  0.2097  0.3428
 3464UDC    C1138104  11.423  18.437   8.368  1.5591 -0.8348 -0.9434
 3465UDC     C138105  15.776   1.300   2.027 -0.3216 -0.7245  0.0377
 3465UDC     C238106  15.779   1.335   2.173  1.4807  0.0256  0.3766
 3465UDC     C338107  15.642   1.332   2.235 -0.2906  0.1596 -0.5924
 3465UDC     C438108  15.557   1.461   2.218  0.0608 -0.3303 -0.2222
 3465UDC     C538109  15.403   1.447   2.226 -1.4702  0.8315  0.4642
 3465UDC     C638110  15.358   1.371   2.354  0.7157 -0.4242 -0.4173
 3465UDC     C738111  15.241   1.425   2.449  0.1187  0.8086  0.1439
 3465UDC     C838112  15.288   1.522   2.551  0.1328 -1.1752  0.8818
 3465UDC     C938113  15.176   1.622   2.572 -0.0236  0.3338 -0.3692
 3465UDC    C1038114  15.187   1.730   2.466  0.6164 -0.3692  0.2389
 3465UDC    C1138115  15.065   1.807   2.420  0.8274  0.6445  0.0080
 3466UDC     C138116   2.314   8.436  19.101  0.1232  0.7574 -0.7851
 3466UDC     C238117   2.255   8.510  18.977  0.4408 -0.5227 -0.5571
 3466UDC     C338118   2.242   8.663  19.013  0.0063 -0.2978 -0.1505
 3466UDC     C438119   2.173   8.775  18.943 -0.8484  0.1907  0.7958
 3466UDC     C538120   2.028   8.753  18.916  0.9163 -0.1080 -0.5449
 3466UDC     C638121   1.943   8.859  18.837 -0.4596 -0.3203 -0.6725
 3466UDC     C738122   1.814   8.823  18.762 -0.5441 -0.6825  0.5552
 3466UDC     C838123   1.762   8.899  18.634 -0.1773 -0.4880  0.3783
 3466UDC     C938124   1.606   8.884  18.643  0.5788  0.2078  0.6488
 3466UDC    C1038125   1.553   8.926  18.501 -0.0784  0.1600 -0.0675
 3466UDC    C1138126   1.400   8.940  18.512 -0.1175 -0.5286 -0.7991
 3467UDC     C138127  12.389   7.888  13.544  0.2455 -0.2089 -0.7144
 3467UDC     C238128  12.463   7.959  13.669  0.2404  0.3826 -0.6188
 3467UDC     C338129  12.423   7.966  13.815 -0.2323  0.9817  0.2751
 3467UDC     C438130  12.503   8.078  13.895 -1.0223 -0.6130 -0.5078
 3467UDC     C538131  12.495   8.077  14.045  0.4367 -0.7055 -1.0605
 3467UDC     C638132  12.521   8.203  14.121  0.1537 -0.9892 -1.7096
 3467UDC     C738133  12.451   8.194  14.263 -0.4085 -0.7469  0.1641
 3467UDC     C838134  12.293   8.223  14.253 -0.6955  0.3535  1.0070
 3467UDC     C938135  12.218   8.213  14.376  0.1207 -0.5263 -1.0834
 3467UDC    C1038136  12.072   8.250  14.345 -0.0590  0.5487 -0.2053
 3467UDC    C1138137  12.002   8.147  14.253  0.3067 -0.8740  0.7823
 3468UDC     C138138  14.668   4.508   5.204 -0.5353  0.0949 -0.0636
 3468UDC     C238139  14.689   4.371   5.139  0.3202  0.1325  0.5393
 3468UDC     C338140  14.842   4.332   5.119  0.2756  0.1263  1.3842
 3468UDC     C438141  14.871   4.191   5.094  0.5412 -0.4987 -0.3112
 3468UDC     C538142  14.809   4.138   4.970  0.6796 -0.6208  0.6828
 3468UDC     C638143  14.884   4.196   4.846 -0.8736 -0.0100  0.1022
 3468UDC     C738144  14.806   4.149   4.718  0.2404  0.4355  1.1059
 3468UDC     C838145  14.872   4.198   4.585  1.1593 -0.2302 -1.0575
 3468UDC     C938146  14.822   4.166   4.443  0.0516  1.2529 -0.6116
 3468UDC    C1038147  14.717   4.055   4.428 -0.1537 -0.2200  0.7078
 3468UDC    C1138148  14.572   4.113   4.422  0.7299  0.3392 -0.9208
 3469UDC     C138149  17.518   5.953  19.508 -0.5696 -0.6259 -0.1009
 3469UDC     C238150  17.564   6.030  19.638  0.3392 -0.1686  0.6466
 3469UDC     C338151  17.611   6.175  19.633  0.3895 -0.5028 -1.2630
 3469UDC     C438152  17.506   6.277  19.619 -0.9043 -0.9784  1.5857
 3469UDC     C538153  17.423   6.327  19.735 -0.0243 -0.1317 -0.3839
 3469UDC     C638154  17.366   6.471  19.739  0.4380 -0.1949  1.0304
 3469UDC     C738155  17.251   6.483  19.833 -0.2234  0.9406 -0.1063
 3469UDC     C838156  17.307   6.521  19.972 -0.5165  0.2475 -0.1373
 3469UDC     C938157  17.202   6.552  20.082 -0.4453  1.2541  0.3550
 3469UDC    C1038158  17.139   6.419  20.123  0.9422  1.3579 -0.0727
 3469UDC    C1138159  17.099   6.435  20.273 -0.3484 -0.2903  1.1537
 3470UDC     C138160   4.144  15.278  12.646  0.5116  0.2753 -0.1068
 3470UDC     C238161   4.175  15.236  12.792 -0.9910 -1.0944 -1.3968
 3470UDC     C338162   4.058  15.208  12.888 -0.1710  0.2772  0.4898
 3470UDC     C438163   4.093  15.123  13.006 -0.2321 -0.5050  0.8877
 3470UDC     C538164   4.132  15.206  13.130 -0.5622  0.5777  0.6854
 3470UDC     C638165   4.085  15.137  13.259 -0.0361  0.5412 -0.8279
 3470UDC     C738166   4.069  15.227  13.386  0.2172  0.2085  0.2126
 3470UDC     C838167   4.114  15.149  13.515 -1.6688  0.0472  0.1735
 3470UDC     C938168   4.266  15.140  13.523  0.0251  0.2486 -0.9777
 3470UDC    C1038169   4.307  15.258  13.608 -0.4014 -0.0042 -0.3820
 3470UDC    C1138170   4.240  15.252  13.748  0.0186  0.3309  0.6429
 3471UDC     C138171   0.744  15.641  14.984  0.2357  0.7266 -0.3410
 3471UDC     C238172   0.664  15.513  14.966  0.5641 -0.1889 -0.1506
 3471UDC     C338173   0.547  15.532  14.867  0.3445  1.0591  1.1152
 3471UDC     C438174   0.508  15.404  14.787  1.2762  0.1920  0.8742
 3471UDC     C538175   0.617  15.353  14.692 -0.2196  0.0518 -0.3123
 3471UDC     C638176   0.559  15.239  14.606 -0.0731 -0.0826 -0.4417
 3471UDC     C738177   0.669  15.167  14.531 -0.4141 -0.4968 -0.1315
 3471UDC     C838178   0.802  15.115  14.582  0.5724 -1.1085  0.0221
 3471UDC     C938179   0.891  15.045  14.488  0.0504  0.5394  0.1700
 3471UDC    C1038180   1.006  14.955  14.542  1.2206 -0.2176 -1.3561
 3471UDC    C1138181   1.106  14.913  14.438 -0.1921 -1.0676  1.3743
 3472UDC     C138182  17.090   9.707   5.418  0.3397  0.1755  0.2497
 3472UDC     C238183  17.074   9.569   5.360 -0.4676  0.2127 -0.6355
 3472UDC     C338184  17.196   9.522   5.267 -0.2646 -0.9620 -0.3409
 3472UDC     C438185  17.155   9.407   5.174  0.5303  0.2352  0.8097
 3472UDC     C538186  17.103   9.288   5.240 -0.1428  0.2611  0.1121
 3472UDC     C638187  17.189   9.246   5.356  0.0585  0.2707 -1.6302
 3472UDC     C738188  17.311   9.155   5.329  0.2211  0.5064  0.3096
 3472UDC     C838189  17.385   9.090   5.448 -0.9831  0.2862 -0.5540
 3472UDC     C938190  17.539   9.139   5.445  0.6730 -0.4805  0.1085
 3472UDC    C1038191  17.622   9.060   5.550  0.5725  0.0474 -0.7275
 3472UDC    C1138192  17.760   9.011   5.498  0.6481  0.4954 -0.6217
 3473UDC     C138193  14.983   9.890   5.941  0.8692 -0.0956 -0.1561
 3473UDC     C238194  14.972  10.039   5.950 -0.1444 -1.6290 -0.7625
 3473UDC     C338195  14.878  10.071   6.071 -0.0390  0.2273  0.0509
 3473UDC     C438196  14.927  10.032   6.209 -0.7029 -0.1621  0.7682
 3473UDC     C538197  15.013  10.131   6.283 -0.4873  0.0156 -0.0619
 3473UDC     C638198  15.048  10.096   6.431 -0.0082 -0.4049  0.3049
 3473UDC     C738199  15.097  10.206   6.528 -1.7001 -0.9663  0.3957
 3473UDC     C838200  15.197  10.186   6.653 -0.3788  0.1251  0.9241
 3473UDC     C938201  15.273  10.310   6.691  0.1085  0.7516  0.1348
 3473UDC    C1038202  15.356  10.366   6.570  1.3316 -1.3150  0.5003
 3473UDC    C1138203  15.421  10.490   6.631 -0.5022 -1.0661 -0.4626
 3474UDC     C138204  12.664  10.417  11.897  0.5908  0.3442 -0.4880
 3474UDC     C238205  12.802  10.458  11.941 -0.6203  1.2253  0.3008
 3474UDC     C338206  12.810  10.597  11.995 -0.2441  0.2027 -0.7318
 3474UDC     C438207  12.941  10.650  11.945  0.4213  0.2456 -0.1911
 3474UDC     C538208  13.005  10.768  12.011  0.0280 -0.0126  0.4898
 3474UDC     C638209  13.060  10.732  12.150 -0.5219 -0.2533 -0.1672
 3474UDC     C738210  13.213  10.725  12.145 -0.1772  0.2259 -0.1285
 3474UDC     C838211  13.275  10.702  12.287  0.1890  0.8967 -0.0764
 3474UDC     C938212  13.424  10.712  12.293  0.2171  0.0064 -0.1432
 3474UDC    C1038213  13.488  10.624  12.404  0.3150  1.1409 -0.0398
 3474UDC    C1138214  13.460  10.472  12.377 -0.4942  1.0725 -0.0717
 3475UDC     C138215   4.904   8.301  11.467  0.0155 -0.4851  0.6452
 3475UDC     C238216   4.778   8.367  11.527 -0.2811  0.1906 -0.7930
 3475UDC     C338217   4.716   8.486  11.436 -0.4083 -0.7954 -0.7462
 3475UDC     C438218   4.631   8.427  11.328 -0.3261 -0.4950  0.4583
 3475UDC     C538219   4.546   8.509  11.220  0.8619 -0.1391  0.2408
 3475UDC     C638220   4.622   8.549  11.093 -1.2076  0.4479  0.2517
 3475UDC     C738221   4.618   8.442  10.985  0.6150  0.3167 -0.4946
 3475UDC     C838222   4.507   8.490  10.886  1.1582 -1.2126 -0.4040
 3475UDC     C938223   4.366   8.509  10.945  0.0951 -0.0547 -0.8152
 3475UDC    C1038224   4.243   8.533  10.861 -0.3659  0.1724  0.3496
 3475UDC    C1138225   4.224   8.665  10.804 -1.4712 -0.9432 -0.1137
 3476UDC     C138226   7.029   9.718   2.578 -0.3401 -0.0678 -0.6942
 3476UDC     C238227   7.122   9.705   2.699  0.1350 -1.0614  0.0618
 3476UDC     C338228   7.073   9.778   2.823 -0.3871 -0.9067  0.0163
 3476UDC     C438229   6.960   9.694   2.892  0.4720  1.0111  0.1978
 3476UDC     C538230   6.907   9.743   3.032  0.3377 -0.8305  1.1661
 3476UDC     C638231   6.849   9.647   3.133  1.3599 -0.9670  0.2565
 3476UDC     C738232   6.935   9.573   3.234 -0.1960  0.9398 -0.3018
 3476UDC     C838233   6.873   9.510   3.357 -0.7988 -0.1722 -0.4714
 3476UDC     C938234   6.818   9.602   3.464 -0.1810 -0.0305 -0.6979
 3476UDC    C1038235   6.772   9.528   3.595 -0.6374 -0.5580  0.6076
 3476UDC    C1138236   6.882   9.444   3.661  0.4147 -0.1821  0.2424
 3477UDC     C138237   2.905  14.619  10.705 -0.3198 -0.2471  0.1386
 3477UDC     C238238   2.879  14.598  10.555  0.3441  0.3280  0.8884
 3477UDC     C338239   2.784  14.478  10.521  0.0106 -0.4569 -0.7619
 3477UDC     C438240   2.814  14.406  10.392 -0.4974  1.0000  0.5957
 3477UDC     C538241   2.953  14.334  10.416 -0.5103 -0.7753  0.8051
 3477UDC     C638242   3.012  14.256  10.306  0.2571  0.0005  0.7212
 3477UDC     C738243   3.001  14.115  10.341  0.5288 -0.2556 -0.4142
 3477UDC     C838244   2.859  14.054  10.372 -0.7518 -0.7822 -0.5715
 3477UDC     C938245   2.860  13.909  10.416 -0.1701  0.4341 -0.0207
 3477UDC    C1038246   2.886  13.878  10.561  0.1842 -0.4907 -1.0259
 3477UDC    C1138247   2.769  13.879  10.663  0.5162 -0.6344  0.8748
 3478UDC     C138248   5.302  17.956  16.289  1.0077 -0.1334 -0.2737
 3478UDC     C238249   5.251  17.853  16.177 -0.6960  0.4506 -0.1714
 3478UDC     C338250   5.342  17.724  16.179 -1.1961  0.2815  0.8112
 3478UDC     C438251   5.484  17.728  16.121  0.1965 -0.0749 -0.5886
 3478UDC     C538252   5.550  17.588  16.134 -0.6237 -0.5257 -0.3269
 3478UDC     C638253   5.488  17.484  16.037 -0.4766 -1.0901 -0.3172
 3478UDC     C738254   5.512  17.491  15.886  0.0775 -0.5435  0.4939
 3478UDC     C838255   5.384  17.544  15.807  0.1596 -0.4399  0.5607
 3478UDC     C938256   5.429  17.551  15.664 -0.2991  0.9165  0.4939
 3478UDC    C1038257   5.310  17.592  15.568  0.1758 -0.4070  0.5120
 3478UDC    C1138258   5.222  17.460  15.560  0.3096  0.4854 -0.1266
 3479UDC     C138259   5.391   1.550   6.062 -1.1853 -0.1620  0.7603
 3479UDC     C238260   5.394   1.488   5.912  0.6786  0.7561  0.3867
 3479UDC     C338261   5.271   1.485   5.819  0.2811  0.4993  0.1228
 3479UDC     C438262   5.278   1.381   5.709 -0.2369  1.0711  0.6067
 3479UDC     C538263   5.351   1.254   5.754 -0.9640  0.6396 -0.2390
 3479UDC     C638264   5.439   1.195   5.644 -0.8282 -0.0897  0.2018
 3479UDC     C738265   5.490   1.048   5.677 -0.0648 -0.3853  0.1412
 3479UDC     C838266   5.617   1.000   5.603  1.1748  0.2127 -0.0647
 3479UDC     C938267   5.721   1.108   5.642 -0.0482  0.8632  0.2818
 3479UDC    C1038268   5.867   1.050   5.635 -0.1309  0.5182  1.3884
 3479UDC    C1138269   5.933   1.067   5.494 -0.1151 -0.3553 -0.1735
 3480UDC     C138270  16.050   0.562   9.200  0.9677 -0.5639 -0.2373
 3480UDC     C238271  16.062   0.658   9.316 -0.0815 -0.1120 -0.5195
 3480UDC     C338272  15.947   0.626   9.411 -0.1480  0.1127  0.9184
 3480UDC     C438273  15.806   0.689   9.380  0.1715  0.2348  0.8087
 3480UDC     C538274  15.777   0.811   9.464  0.6147  0.6136  1.0060
 3480UDC     C638275  15.894   0.915   9.470  1.0791  0.7593 -0.3192
 3480UDC     C738276  15.872   1.025   9.577 -0.3746  0.9653  0.2048
 3480UDC     C838277  15.847   0.975   9.719 -0.2697 -1.2584  0.6077
 3480UDC     C938278  15.790   1.083   9.813  0.4405  0.5278  0.2835
 3480UDC    C1038279  15.654   1.138   9.755  0.3994  0.3872  0.5662
 3480UDC    C1138280  15.573   1.262   9.799 -1.3575  1.4456 -0.2414
 3481UDC     C138281  15.695   8.121   0.613 -0.2215  0.1891  1.5592
 3481UDC     C238282  15.736   8.177   0.475  0.8941 -0.5620 -0.1058
 3481UDC     C338283  15.844   8.288   0.483 -1.0619  0.5912 -1.1723
 3481UDC     C438284  15.911   8.326   0.351  0.1297  0.3451 -0.2693
 3481UDC     C538285  15.979   8.206   0.293 -0.4798 -0.5379  0.5794
 3481UDC     C638286  16.119   8.179   0.347 -0.3579 -0.2070 -0.3757
 3481UDC     C738287  16.172   8.253   0.472  0.4763 -0.5692  0.0454
 3481UDC     C838288  16.289   8.175   0.541 -1.1770 -0.8329  0.1298
 3481UDC     C938289  16.392   8.255   0.626  0.4538  0.0363  0.3514
 3481UDC    C1038290  16.502   8.177   0.704  0.6442  0.7041  0.6032
 3481UDC    C1138291  16.466   8.065   0.798 -0.0793 -0.2521 -0.8754
 3482UDC     C138292   7.225   1.433   1.543 -0.2321 -0.0190  0.0493
 3482UDC     C238293   7.094   1.394   1.471 -0.0674  1.5163  1.0209
 3482UDC     C338294   7.117   1.352   1.323 -0.3804 -0.7559 -0.3671
 3482UDC     C438295   7.020   1.255   1.252  0.1939 -0.2086 -0.1075
 3482UDC     C538296   7.056   1.239   1.100  0.3288 -0.2306  0.1011
 3482UDC     C638297   7.007   1.345   0.997 -1.1101  1.2417 -0.1845
 3482UDC     C738298   6.958   1.277   0.865 -0.1930  0.2734 -0.6962
 3482UDC     C838299   6.902   1.372   0.760 -0.2277 -0.7338 -0.1244
 3482UDC     C938300   6.879   1.292   0.626 -0.4047 -1.0981  0.1244
 3482UDC    C1038301   6.793   1.174   0.677 -0.1020  0.8506  0.1083
 3482UDC    C1138302   6.649   1.186   0.630  0.4159  0.1689 -0.0270
 3483UDC     C138303   9.253   4.955   9.073  0.6763  0.3350 -0.4612
 3483UDC     C238304   9.324   4.907   8.948 -0.2077  0.3896 -0.4262
 3483UDC     C338305   9.397   4.777   8.980  0.3201  0.0264  0.1503
 3483UDC     C438306   9.504   4.792   9.077  0.3702  0.2923  0.2876
 3483UDC     C538307   9.550   4.660   9.146  0.6914  0.4799 -0.8110
 3483UDC     C638308   9.689   4.649   9.218  0.8254  0.0744 -0.0856
 3483UDC     C738309   9.814   4.713   9.157 -0.1554  0.8861 -0.4436
 3483UDC     C838310   9.949   4.695   9.239  0.4446  1.0762  0.5818
 3483UDC     C938311  10.075   4.757   9.166 -0.5500 -0.0804 -0.7488
 3483UDC    C1038312  10.207   4.760   9.251 -0.2155  0.1169  0.6740
 3483UDC    C1138313  10.190   4.708   9.395  0.3090 -0.7579  0.8581
 3484UDC     C138314   3.599   6.483  14.467  0.2372  0.8238  0.7840
 3484UDC     C238315   3.444   6.486  14.476  0.6296  0.4554 -0.5855
 3484UDC     C338316   3.354   6.605  14.526 -0.4419 -0.1540 -0.3014
 3484UDC     C438317   3.353   6.609  14.674  1.0780 -0.2463 -0.8036
 3484UDC     C538318   3.321   6.736  14.760  0.6989  0.5886 -0.3337
 3484UDC     C638319   3.323   6.703  14.907  0.0811  0.1893  0.0220
 3484UDC     C738320   3.271   6.825  14.991  0.1576  0.2037  0.9922
 3484UDC     C838321   3.122   6.823  14.980  0.1496 -0.6199  0.6576
 3484UDC     C938322   3.053   6.949  15.045  0.0474 -0.5738  0.5386
 3484UDC    C1038323   2.906   6.967  14.989 -0.5575 -0.9889 -0.6590
 3484UDC    C1138324   2.867   7.096  14.916  1.6426  0.9744  0.1163
 3485UDC     C138325  18.593  19.228   5.727  0.7354 -0.1088 -0.4097
 3485UDC     C238326  18.684  19.353   5.709 -0.4472 -0.1705  0.1898
 3485UDC     C338327  18.827  19.313   5.761 -1.3775  0.4398  0.6932
 3485UDC     C438328  18.835  19.263   5.907 -0.0351  1.1052  1.2130
 3485UDC     C538329  18.952  19.173   5.936 -0.9783 -0.2933  0.4088
 3485UDC     C638330  19.069  19.211   5.837  0.7098  0.1321  0.5509
 3485UDC     C738331  19.189  19.112   5.829  0.1933  0.1765 -0.0899
 3485UDC     C838332  19.164  18.976   5.762 -0.2738  0.3824 -0.1600
 3485UDC     C938333  19.122  18.864   5.859 -0.4944  0.4668  0.6347
 3485UDC    C1038334  19.228  18.822   5.956  1.6869  1.0817 -1.3701
 3485UDC    C1138335  19.166  18.750   6.080  1.2857  0.3674  0.4488
 3486UDC     C138336   8.232  19.371   6.184  0.7969 -0.5418  0.5023
 3486UDC     C238337   8.289  19.441   6.305  0.5349  0.2307  0.6351
 3486UDC     C338338   8.427  19.398   6.361  0.0356  0.0949  0.9507
 3486UDC     C438339   8.529  19.465   6.268 -0.4718 -0.4633  0.8422
 3486UDC     C538340   8.586  19.600   6.315  0.8616 -0.5789 -0.8146
 3486UDC     C638341   8.701  19.639   6.220  1.0119  0.1337 -0.1140
 3486UDC     C738342   8.777  19.763   6.266 -0.2387  0.2615 -0.1874
 3486UDC     C838343   8.809  19.743   6.410 -0.3579  0.2099 -1.7272
 3486UDC     C938344   8.947  19.693   6.444 -0.9002  0.2646 -0.6966
 3486UDC    C1038345   9.019  19.736   6.578 -0.6203 -0.5446  0.1048
 3486UDC    C1138346   8.974  19.867   6.639  0.2771 -0.6104  0.6671
 3487UDC     C138347  13.953   4.620  15.636 -0.5293  0.0431  0.0324
 3487UDC     C238348  13.942   4.609  15.487 -0.3749 -0.3585  0.3467
 3487UDC     C338349  13.801   4.566  15.425  0.9467 -0.2558 -1.3008
 3487UDC     C438350  13.674   4.628  15.489  0.6358 -0.9955  0.6020
 3487UDC     C538351  13.535   4.574  15.484 -0.4017  0.4572  0.6565
 3487UDC     C638352  13.438   4.673  15.412 -0.5282 -1.1231 -0.3683
 3487UDC     C738353  13.461   4.816  15.473 -1.2863  0.2369 -0.0715
 3487UDC     C838354  13.393   4.830  15.608  0.3349  0.2521  0.2052
 3487UDC     C938355  13.436   4.952  15.684 -0.2384 -0.3723  0.6010
 3487UDC    C1038356  13.344   4.983  15.804 -0.6889 -0.2778  0.1864
 3487UDC    C1138357  13.316   5.135  15.835  0.0464 -0.2818  0.3030
 3488UDC     C138358  15.535  16.560   7.779 -0.3241 -0.5085 -1.1623
 3488UDC     C238359  15.413  16.560   7.877  0.8657 -0.9256  0.1584
 3488UDC     C338360  15.376  16.422   7.930  0.7162  0.5885 -0.8223
 3488UDC     C438361  15.348  16.434   8.077  0.4090  0.5762  0.0200
 3488UDC     C538362  15.221  16.507   8.117  1.1054 -0.6110 -0.1224
 3488UDC     C638363  15.207  16.551   8.264  0.1896  0.0230  0.4647
 3488UDC     C738364  15.243  16.447   8.375 -0.6965  0.4427  0.1917
 3488UDC     C838365  15.249  16.503   8.523  1.2955  0.9501 -0.5922
 3488UDC     C938366  15.119  16.585   8.563  0.0522  0.7891  1.3558
 3488UDC    C1038367  15.114  16.619   8.712  0.7754 -0.7938  0.9020
 3488UDC    C1138368  15.209  16.715   8.774 -0.3700 -1.0966 -0.5031
 3489UDC     C138369  15.601   2.610  15.477 -0.3039  1.7556 -0.8785
 3489UDC     C238370  15.470   2.553  15.432  0.7025  0.9260 -0.0369
 3489UDC     C338371  15.422   2.558  15.283  0.1793 -1.0110 -0.4676
 3489UDC     C438372  15.509   2.485  15.185  0.1892  0.0146  0.9478
 3489UDC     C538373  15.587   2.564  15.074 -1.3929  0.3593 -0.4880
 3489UDC     C638374  15.698   2.487  14.991 -0.6179 -0.9111 -0.0861
 3489UDC     C738375  15.817   2.460  15.088 -0.3233 -0.5696  0.2271
 3489UDC     C838376  15.895   2.589  15.124  1.5345 -0.5810  1.3852
 3489UDC     C938377  16.034   2.552  15.185  0.1672  0.5437  0.1633
 3489UDC    C1038378  16.000   2.450  15.300 -0.5560 -0.0812  0.2515
 3489UDC    C1138379  16.121   2.390  15.363  0.4256  0.4578 -0.0057
 3490UDC     C138380  12.391  19.512  15.799  0.0351 -0.2202 -0.0875
 3490UDC     C238381  12.528  19.445  15.824 -0.0415  0.0166  0.2135
 3490UDC     C338382  12.574  19.429  15.971 -0.5825  0.6385 -0.3578
 3490UDC     C438383  12.499  19.310  16.036  0.0117  0.2744 -0.3122
 3490UDC     C538384  12.582  19.236  16.146  0.1208 -0.0189 -0.4273
 3490UDC     C638385  12.508  19.125  16.218  0.2648  0.2774 -0.8518
 3490UDC     C738386  12.606  19.036  16.308 -0.2145 -0.0329 -0.3533
 3490UDC     C838387  12.733  18.991  16.229 -1.3337 -0.9373  0.1900
 3490UDC     C938388  12.850  18.953  16.324 -0.2810  1.0833  0.5563
 3490UDC    C1038389  12.908  18.827  16.258  0.6611  1.0150 -0.2967
 3490UDC    C1138390  13.049  18.788  16.307  0.3347  0.4269 -0.4299
 3491UDC     C138391  14.897  16.588  13.700  0.0637  0.1397 -0.2148
 3491UDC     C238392  15.035  16.657  13.743 -0.4595  0.1156  0.4214
 3491UDC     C338393  15.155  16.570  13.712 -0.1675 -0.2520  0.1064
 3491UDC     C438394  15.167  16.431  13.787  0.4203  0.2723  0.0728
 3491UDC     C538395  15.274  16.335  13.730 -0.1130  1.5876 -0.0848
 3491UDC     C638396  15.320  16.235  13.839  0.0930  0.0723 -0.4689
 3491UDC     C738397  15.382  16.305  13.958 -0.1150 -0.3642  0.3749
 3491UDC     C838398  15.459  16.201  14.048 -0.5345  1.0754  0.3682
 3491UDC     C938399  15.470  16.248  14.193 -0.8207  0.1168 -0.7791
 3491UDC    C1038400  15.503  16.145  14.302 -0.4639 -1.0307 -0.8286
 3491UDC    C1138401  15.657  16.162  14.322 -1.2873  0.0822 -0.5901
 3492UDC     C138402   8.081   2.305   6.873  0.6150 -0.1177 -0.0790
 3492UDC     C238403   7.984   2.246   6.769 -0.2780  0.0977  0.3461
 3492UDC     C338404   8.005   2.317   6.630 -0.2149 -1.2484 -0.0613
 3492UDC     C438405   7.930   2.451   6.617 -0.8511 -1.5367 -0.1022
 3492UDC     C538406   7.890   2.489   6.474 -0.8506  0.3148  0.8030
 3492UDC     C638407   7.873   2.634   6.446  1.5555  0.4566 -0.6152
 3492UDC     C738408   7.832   2.664   6.304 -0.8676 -0.2167  0.5694
 3492UDC     C838409   7.930   2.680   6.197 -1.0185 -0.1488  0.4928
 3492UDC     C938410   8.002   2.820   6.201 -0.3618  0.9238 -0.2471
 3492UDC    C1038411   7.914   2.947   6.170 -0.8733  1.7304  1.4340
 3492UDC    C1138412   7.978   3.076   6.226 -0.6924  0.5337  0.0276
 3493UDC     C138413   8.877  18.166   1.545 -0.9114  0.4463 -0.6954
 3493UDC     C238414   8.989  18.263   1.533  0.5044 -1.1309 -0.7229
 3493UDC     C338415   9.133  18.238   1.476 -0.4173 -0.8653  0.4948
 3493UDC     C438416   9.256  18.325   1.513  0.0857  0.1867 -0.5921
 3493UDC     C538417   9.280  18.336   1.665  0.7198  0.2414  1.6587
 3493UDC     C638418   9.358  18.452   1.724 -0.0814 -0.1269  0.3727
 3493UDC     C738419   9.344  18.440   1.875  0.4859  0.0143  0.7615
 3493UDC     C838420   9.390  18.573   1.947  0.1154  0.5234  0.1625
 3493UDC     C938421   9.348  18.586   2.090  0.5741 -0.0809 -0.2325
 3493UDC    C1038422   9.390  18.725   2.150 -0.8857 -0.3095 -0.4580
 3493UDC    C1138423   9.534  18.767   2.129 -1.2831  0.4261  1.3270
 3494UDC     C138424  13.025  16.312  10.357  0.1390 -1.1651  0.7936
 3494UDC     C238425  13.046  16.325  10.199 -0.1041 -0.5012 -1.0884
 3494UDC     C338426  12.950  16.234  10.126 -0.6537  0.4987 -0.0556
 3494UDC     C438427  12.799  16.259  10.128  0.2491  0.6994  0.5731
 3494UDC     C538428  12.705  16.149  10.075  0.4572 -0.0312 -0.3388
 3494UDC     C638429  12.583  16.215  10.002  0.2812 -0.4030 -0.7777
 3494UDC     C738430  12.512  16.113   9.917 -0.4423  0.0748 -0.7168
 3494UDC     C838431  12.606  16.068   9.803 -0.0017 -0.2442 -0.0559
 3494UDC     C938432  12.557  15.957   9.707 -1.2593 -0.5023 -0.9265
 3494UDC    C1038433  12.603  15.816   9.748 -0.4542 -0.6896  0.1290
 3494UDC    C1138434  12.756  15.805   9.765 -0.0402  0.5435  0.6867
 3495UDC     C138435  15.427  17.722   7.137  0.6163 -0.3438  0.4210
 3495UDC     C238436  15.335  17.656   7.247  0.9945  0.2462 -0.0909
 3495UDC     C338437  15.193  17.617   7.194  0.7234 -0.3762  0.2121
 3495UDC     C438438  15.196  17.526   7.068  0.0019 -0.8110 -0.4307
 3495UDC     C538439  15.132  17.394   7.089 -0.0831  0.1351  0.4194
 3495UDC     C638440  15.154  17.300   6.972 -0.4540 -0.1473  0.4481
 3495UDC     C738441  15.064  17.336   6.853  0.3833 -1.1359  0.1608
 3495UDC     C838442  15.143  17.331   6.728 -0.0126  0.8186  0.6399
 3495UDC     C938443  15.079  17.309   6.591 -0.6337 -0.0526 -0.4405
 3495UDC    C1038444  15.171  17.280   6.469 -0.5068  0.4816  0.6849
 3495UDC    C1138445  15.101  17.181   6.380  0.5532 -0.0483  0.4768
 3496UDC     C138446  12.437  13.270   2.233  0.0431  1.3902 -0.6199
 3496UDC     C238447  12.580  13.204   2.240  0.1106  0.1655  1.0695
 3496UDC     C338448  12.599  13.073   2.334  0.9230 -0.1681  0.5904
 3496UDC     C438449  12.745  13.093   2.378  0.2632 -0.0512 -0.1721
 3496UDC     C538450  12.788  13.002   2.491 -0.7083  0.0028 -0.6561
 3496UDC     C638451  12.940  12.956   2.480  0.9288 -0.8733  0.0931
 3496UDC     C738452  13.048  13.071   2.475  0.9641 -0.2621 -0.3848
 3496UDC     C838453  13.078  13.141   2.607  0.3944  0.5688  0.0547
 3496UDC     C938454  13.123  13.284   2.593 -0.3440  0.4621  0.5424
 3496UDC    C1038455  13.138  13.331   2.733  0.0093 -0.3095  0.2332
 3496UDC    C1138456  12.995  13.329   2.788 -0.4278  0.8445  1.0076
 3497UDC     C138457   4.624  14.224   2.577  0.1887  0.2149  0.7967
 3497UDC     C238458   4.742  14.153   2.513 -0.1113 -0.2323 -0.6544
 3497UDC     C338459   4.863  14.238   2.524 -0.4719 -1.3333  0.3940
 3497UDC     C438460   4.889  14.357   2.428  0.5878 -0.8729 -0.4042
 3497UDC     C538461   4.850  14.302   2.286  0.8201 -0.6186 -0.0230
 3497UDC     C638462   4.900  14.383   2.163  0.6625  0.1908 -0.6608
 3497UDC     C738463   5.044  14.345   2.131  0.5712  0.0382  0.5763
 3497UDC     C838464   5.097  14.452   2.032 -0.4069  0.0047 -0.6627
 3497UDC     C938465   5.147  14.572   2.115  0.4112  0.2887 -0.4980
 3497UDC    C1038466   5.213  14.676   2.027  0.9013  0.2807 -1.0071
 3497UDC    C1138467   5.322  14.767   2.073  0.0523  0.2924  0.2399
 3498UDC     C138468   2.159   0.690   8.053  0.0870 -0.3499  0.4848
 3498UDC     C238469   2.177   0.787   7.938 -0.3684  0.2162  0.2414
 3498UDC     C338470   2.291   0.761   7.838 -0.0714 -0.6411 -0.2037
 3498UDC     C438471   2.309   0.855   7.712  0.6895  0.1729  0.1474
 3498UDC     C538472   2.292   0.997   7.756  0.8016  0.5619 -0.2302
 3498UDC     C638473   2.311   1.102   7.647 -0.3848  0.8220 -0.6177
 3498UDC     C738474   2.403   1.206   7.700  1.0958 -0.6519 -0.2962
 3498UDC     C838475   2.365   1.346   7.652 -0.1098  1.3794  0.5586
 3498UDC     C938476   2.468   1.454   7.681  0.9845  0.4434 -0.3344
 3498UDC    C1038477   2.431   1.590   7.611 -1.4207  0.3238  0.0990
 3498UDC    C1138478   2.285   1.648   7.615 -0.2770  0.8842  0.7765
 3499UDC     C138479   9.418  13.206  11.433  0.2057 -0.2396 -0.2535
 3499UDC     C238480   9.494  13.336  11.457  0.1883  0.4911  0.3250
 3499UDC     C338481   9.651  13.336  11.430 -1.1721 -0.7638  0.4687
 3499UDC     C438482   9.680  13.340  11.282  0.7304 -0.0026 -0.1943
 3499UDC     C538483   9.824  13.309  11.247 -0.2902  0.3986  0.0483
 3499UDC     C638484   9.860  13.292  11.094 -0.2016  0.5541  0.0257
 3499UDC     C738485  10.004  13.288  11.034  0.0881  0.6418 -0.2722
 3499UDC     C838486  10.028  13.139  10.999 -0.1566 -0.6216  0.4372
 3499UDC     C938487  10.166  13.072  10.984 -0.5305 -1.1513  0.1831
 3499UDC    C1038488  10.294  13.140  10.925 -0.1112  0.3351  0.6605
 3499UDC    C1138489  10.291  13.179  10.778 -0.1176  0.0541 -0.5378
 3500UDC     C138490   9.800   6.322   1.772 -1.2459  0.8624 -1.2429
 3500UDC     C238491   9.896   6.443   1.809 -1.1061 -0.0323  1.4883
 3500UDC     C338492   9.979   6.481   1.690 -0.6621 -0.5494 -0.2643
 3500UDC     C438493  10.039   6.619   1.718 -0.6264 -0.1617 -0.3995
 3500UDC     C538494  10.050   6.713   1.601  0.5950 -0.4177  0.6041
 3500UDC     C638495  10.153   6.825   1.620 -0.6680  0.4550 -0.5786
 3500UDC     C738496  10.206   6.888   1.485 -0.2186 -0.6636 -0.2695
 3500UDC     C838497  10.284   7.020   1.502 -0.2216 -0.5513  1.1793
 3500UDC     C938498  10.435   6.998   1.525 -0.6835 -0.3003 -0.4235
 3500UDC    C1038499  10.511   6.989   1.392  1.4051 -0.0791  0.1083
 3500UDC    C1138500  10.653   7.035   1.424  1.1817 -0.7115  0.6340
 3501UDC     C138501  13.688  15.995  19.538 -0.1969 -0.1625  0.9893
 3501UDC     C238502  13.658  15.849  19.520  1.1917  0.1183  0.7628
 3501UDC     C338503  13.558  15.787  19.617  0.6886 -0.6736  0.0505
 3501UDC     C438504  13.525  15.641  19.587  1.4611  0.0667  0.1645
 3501UDC     C538505  13.605  15.547  19.679  0.5286 -0.3515  0.9385
 3501UDC     C638506  13.754  15.539  19.654 -0.3973 -0.0789  0.8790
 3501UDC     C738507  13.816  15.422  19.737 -0.3792  0.4717  0.3833
 3501UDC     C838508  13.792  15.418  19.885  0.1939  1.2369  0.4181
 3501UDC     C938509  13.846  15.286  19.948 -0.4304 -0.3808  0.0342
 3501UDC    C1038510  13.774  15.260  20.082 -0.1476  0.0695  0.1961
 3501UDC    C1138511  13.651  15.169  20.044 -0.5039  0.2894  0.0248
 3502UDC     C138512  18.040   4.503   2.528  0.5922  0.4365 -0.0072
 3502UDC     C238513  17.949   4.412   2.442  0.1091  0.0753  1.0435
 3502UDC     C338514  17.802   4.447   2.400  0.1300 -0.0115  0.4214
 3502UDC     C438515  17.815   4.583   2.326  0.0921  0.0527 -0.3987
 3502UDC     C538516  17.838   4.576   2.176  0.6719  1.5081 -0.8196
 3502UDC     C638517  17.829   4.706   2.099  0.5721  0.1568  0.2823
 3502UDC     C738518  17.906   4.742   1.971 -1.3794  0.7356  0.9553
 3502UDC     C838519  17.870   4.866   1.887 -1.1545  0.0606 -0.2300
 3502UDC     C938520  17.978   4.975   1.894  0.5826  0.0839  0.3494
 3502UDC    C1038521  17.991   5.070   2.012  0.1087 -0.1073 -0.9594
 3502UDC    C1138522  18.046   5.207   1.970 -0.1405  0.5666  0.1400
 3503UDC     C138523   5.617  15.938  12.465  0.6282 -0.9050  0.6576
 3503UDC     C238524   5.557  15.833  12.375  0.3259  0.5055  1.0945
 3503UDC     C338525   5.555  15.859  12.229  1.4825 -0.3844  0.4983
 3503UDC     C438526   5.474  15.759  12.141  0.2421 -0.0438  0.0940
 3503UDC     C538527   5.496  15.611  12.160  0.6163  1.0872  0.0620
 3503UDC     C638528   5.594  15.551  12.048 -0.8330  0.2378  0.2741
 3503UDC     C738529   5.685  15.439  12.098 -0.0616  1.3590  0.8584
 3503UDC     C838530   5.738  15.328  12.000 -0.4463 -0.5187  0.9872
 3503UDC     C938531   5.640  15.247  11.923 -0.2415  0.4445 -0.5006
 3503UDC    C1038532   5.702  15.125  11.857 -0.2387 -0.3122 -0.2400
 3503UDC    C1138533   5.592  15.041  11.796  0.8075  0.3242  0.0601
 3504UDC     C138534  18.158   2.121   9.028  0.8388 -0.4640  0.2861
 3504UDC     C238535  18.160   2.060   9.174 -0.1414 -0.5046  0.8366
 3504UDC     C338536  18.292   1.976   9.192  0.5607  0.0532  0.4931
 3504UDC     C438537  18.417   2.032   9.115 -0.5077  0.0763 -0.0606
 3504UDC     C538538  18.544   1.945   9.134  1.4132  0.2843  0.9706
 3504UDC     C638539  18.621   1.989   9.258 -0.8378  0.0287 -0.4228
 3504UDC     C738540  18.661   2.137   9.240 -0.0726  1.3441  0.0678
 3504UDC     C838541  18.650   2.209   9.373  0.3480 -0.4782  0.1302
 3504UDC     C938542  18.673   2.362   9.382  0.2338 -0.0110  0.6383
 3504UDC    C1038543  18.635   2.429   9.510  0.1773  0.2764  0.4401
 3504UDC    C1138544  18.702   2.393   9.643 -0.6946 -0.8324 -0.9368
 3505UDC     C138545  15.236   1.595   8.597 -0.6747  0.1176 -0.5881
 3505UDC     C238546  15.166   1.531   8.472  0.2932 -1.1057  0.2821
 3505UDC     C338547  15.195   1.613   8.349  1.7140 -0.6799 -0.1559
 3505UDC     C438548  15.152   1.526   8.234 -0.3013  0.4126  0.1404
 3505UDC     C538549  15.227   1.595   8.122 -0.5010  0.5573 -0.4885
 3505UDC     C638550  15.374   1.628   8.138 -0.2660  1.5848 -0.1834
 3505UDC     C738551  15.421   1.746   8.042 -0.4060 -0.6291 -0.3012
 3505UDC     C838552  15.508   1.858   8.086  0.6037  0.2514 -0.3313
 3505UDC     C938553  15.573   1.948   7.980 -0.7414 -0.0109  1.2587
 3505UDC    C1038554  15.571   2.094   8.027  0.4241 -0.1087  0.1098
 3505UDC    C1138555  15.668   2.186   7.944  0.5202 -0.3834 -0.6165
 3506UDC     C138556   6.835  17.578  15.441 -0.2330  0.1431  0.5518
 3506UDC     C238557   6.911  17.711  15.405  0.9267  0.2468 -0.6213
 3506UDC     C338558   6.888  17.814  15.516  0.0757  1.4985 -0.3534
 3506UDC     C438559   6.746  17.866  15.506 -0.1712 -0.5866  0.2960
 3506UDC     C538560   6.705  17.952  15.628 -0.4585 -0.5683  0.5864
 3506UDC     C638561   6.748  18.098  15.614 -0.7608 -0.8903  0.7132
 3506UDC     C738562   6.733  18.198  15.730  0.6580  0.4103 -0.4663
 3506UDC     C838563   6.732  18.344  15.687 -1.1221 -0.0341  0.3624
 3506UDC     C938564   6.690  18.443  15.794 -0.0362  0.5625  0.1831
 3506UDC    C1038565   6.678  18.581  15.724 -0.2161  0.4554  1.0014
 3506UDC    C1138566   6.641  18.685  15.829  0.3940  0.2278  0.1051
 3507UDC     C138567  12.420  12.105  10.384 -0.8472 -0.1851 -0.3758
 3507UDC     C238568  12.482  12.204  10.481 -0.2736 -0.9670  0.5795
 3507UDC     C338569  12.635  12.216  10.437  0.4883 -0.8210  0.3130
 3507UDC     C438570  12.751  12.189  10.531 -1.5047 -0.4209 -0.3356
 3507UDC     C538571  12.771  12.294  10.644 -0.5145 -0.4969  1.0124
 3507UDC     C638572  12.869  12.402  10.587  0.7171  0.4095 -1.0190
 3507UDC     C738573  12.915  12.517  10.676 -0.1512  0.3136 -0.1542
 3507UDC     C838574  13.028  12.480  10.779 -0.5851 -0.4002  0.3379
 3507UDC     C938575  13.111  12.367  10.718  0.5438 -0.6032  0.5022
 3507UDC    C1038576  13.187  12.260  10.806  0.2902  0.2446 -0.0950
 3507UDC    C1138577  13.276  12.315  10.918  0.0940  0.4999  0.1601
 3508UDC     C138578  15.992   8.922   1.266 -0.4361  1.4203 -0.3379
 3508UDC     C238579  15.842   8.892   1.284  0.1719  0.6076  0.7020
 3508UDC     C338580  15.754   8.893   1.156  0.2472  0.1143 -0.1011
 3508UDC     C438581  15.712   9.039   1.151  0.4905 -0.1316 -1.0376
 3508UDC     C538582  15.582   9.064   1.072 -0.8391  0.6843  0.3734
 3508UDC     C638583  15.456   8.976   1.100  0.0900  0.0094 -0.1761
 3508UDC     C738584  15.326   9.059   1.096  0.4380  1.3990  0.2120
 3508UDC     C838585  15.195   8.971   1.062 -0.3109 -0.4018 -0.1855
 3508UDC     C938586  15.218   8.867   0.948 -0.3793  0.0567  0.2024
 3508UDC    C1038587  15.090   8.793   0.901  0.1014  0.4740  0.6155
 3508UDC    C1138588  15.135   8.659   0.835 -1.0774 -0.6943  0.0703
 3509UDC     C138589   5.135  18.201   0.286  0.0449  0.3012 -0.0636
 3509UDC     C238590   5.103  18.325   0.356  0.7228 -1.5678 -0.7772
 3509UDC     C338591   5.186  18.342   0.489  0.5863 -0.7483  1.1076
 3509UDC     C438592   5.089  18.421   0.585 -0.2663 -1.2456 -0.3486
 3509UDC     C538593   4.946  18.399   0.560 -0.1057 -0.4065  0.6382
 3509UDC     C638594   4.851  18.503   0.626 -0.3618 -0.1342  0.3973
 3509UDC     C738595   4.704  18.497   0.583 -0.2416 -0.1496  0.1724
 3509UDC     C838596   4.624  18.607   0.663 -0.9175  0.3381 -0.4069
 3509UDC     C938597   4.670  18.743   0.616 -0.3876 -0.1226 -1.1639
 3509UDC    C1038598   4.581  18.866   0.643  0.1244  0.4529  0.2850
 3509UDC    C1138599   4.577  18.944   0.778  0.6800 -0.5447  0.0485
 3510UDC     C138600   3.226  12.127   6.339 -0.8198  0.6848 -0.3825
 3510UDC     C238601   3.100  12.155   6.254 -0.1764  0.3703  0.1504
 3510UDC     C338602   3.148  12.219   6.121  0.2499 -0.2189 -0.7901
 3510UDC     C438603   3.191  12.137   5.998  0.8962  0.0013 -0.2617
 3510UDC     C538604   3.209  12.214   5.865  0.2693  0.6247 -0.3400
 3510UDC     C638605   3.351  12.188   5.820 -0.0565  0.1446  1.1736
 3510UDC     C738606   3.373  12.146   5.671 -0.4093 -0.3715  0.0280
 3510UDC     C838607   3.526  12.168   5.648 -0.9796  0.4425  0.9689
 3510UDC     C938608   3.566  12.322   5.649  0.1414 -0.0475 -0.9207
 3510UDC    C1038609   3.713  12.358   5.609  0.4296  0.2896  0.1891
 3510UDC    C1138610   3.701  12.495   5.531 -0.3503  0.0796 -0.0665
 3511UDC     C138611  16.392   9.024  10.760 -0.2438  1.0828  0.0160
 3511UDC     C238612  16.421   9.031  10.917  0.2757  0.7353  0.0193
 3511UDC     C338613  16.427   9.178  10.965  0.4598 -0.0409  0.3434
 3511UDC     C438614  16.474   9.199  11.112 -0.8081  1.1175 -0.0843
 3511UDC     C538615  16.375   9.139  11.210  0.0769  0.9696  0.3251
 3511UDC     C638616  16.420   9.153  11.354 -0.3287 -0.0000 -0.3182
 3511UDC     C738617  16.317   9.116  11.457  0.0993  0.6018  0.5062
 3511UDC     C838618  16.345   9.164  11.594 -0.2926  0.0149 -0.4736
 3511UDC     C938619  16.495   9.138  11.638  0.2743 -0.5351  0.4347
 3511UDC    C1038620  16.531   9.179  11.786  0.3208  0.5492  0.0327
 3511UDC    C1138621  16.501   9.331  11.819 -0.6278 -0.4635 -1.0958
 3512UDC     C138622  15.935  11.491  15.857  0.8749 -1.1161 -0.2325
 3512UDC     C238623  15.973  11.466  16.009 -1.2192 -0.7101  0.6239
 3512UDC     C338624  16.026  11.324  16.014 -0.1210  0.5464 -0.2613
 3512UDC     C438625  16.065  11.269  16.150  0.3838  0.0598 -0.9338
 3512UDC     C538626  16.196  11.325  16.222  1.0337 -0.4575 -0.0233
 3512UDC     C638627  16.206  11.251  16.352 -0.0544 -0.5075 -0.3112
 3512UDC     C738628  16.089  11.270  16.449 -0.3899 -1.1282  0.4834
 3512UDC     C838629  16.122  11.198  16.579  0.0032  0.0052  0.9443
 3512UDC     C938630  16.016  11.193  16.684 -0.5937 -0.4862  0.8185
 3512UDC    C1038631  16.048  11.100  16.807  0.0312 -0.5434 -0.1574
 3512UDC    C1138632  16.019  10.958  16.763  0.0694  0.0409 -0.8732
 3513UDC     C138633   4.530  16.101  13.694  0.3670 -0.5748 -0.0555
 3513UDC     C238634   4.536  16.218  13.796 -0.1684 -0.4025 -0.0255
 3513UDC     C338635   4.625  16.332  13.754  0.2629  0.2940 -0.2536
 3513UDC     C438636   4.782  16.327  13.731  2.0094 -0.1630  0.4804
 3513UDC     C538637   4.841  16.224  13.633  0.7018 -0.2836 -1.0402
 3513UDC     C638638   4.990  16.184  13.653  0.2246  0.8964 -0.5912
 3513UDC     C738639   5.100  16.240  13.565  0.4549  0.0392  0.6193
 3513UDC     C838640   5.086  16.142  13.445  0.0463  1.2996  0.4436
 3513UDC     C938641   5.129  15.994  13.469 -1.2278 -0.0342  0.0669
 3513UDC    C1038642   5.263  15.993  13.544 -0.0785  0.1177 -1.2476
 3513UDC    C1138643   5.279  15.867  13.631 -0.2102 -0.9152 -0.0027
 3514UDC     C138644   5.420  16.783  11.477  0.0658 -0.0994 -1.2339
 3514UDC     C238645   5.278  16.717  11.495  0.1231  0.4271  0.4016
 3514UDC     C338646   5.175  16.734  11.373  0.8957  0.8664 -0.7550
 3514UDC     C438647   5.035  16.671  11.408 -0.2429  0.3895  0.4925
 3514UDC     C538648   5.047  16.526  11.461  0.1085  0.5967  0.1168
 3514UDC     C638649   5.104  16.436  11.346 -0.2736 -0.2180 -0.3897
 3514UDC     C738650   4.984  16.380  11.270 -0.4520  0.6006  0.6602
 3514UDC     C838651   4.892  16.279  11.345  0.1455  0.7132  0.8374
 3514UDC     C938652   4.959  16.142  11.363  0.1912 -0.2597 -1.1600
 3514UDC    C1038653   4.877  16.059  11.462  0.1389  0.1404 -1.0160
 3514UDC    C1138654   4.785  15.965  11.384  1.0729  0.5043 -0.2648
 3515UDC     C138655   5.361  10.507   8.934  0.0622 -0.5629  0.3221
 3515UDC     C238656   5.431  10.623   8.855  0.1293  0.8112 -0.8639
 3515UDC     C338657   5.368  10.762   8.838 -0.1577  1.1489 -0.4473
 3515UDC     C438658   5.476  10.850   8.780 -0.6307  0.4034  0.4070
 3515UDC     C538659   5.533  10.953   8.869 -0.4881  0.3025 -1.3539
 3515UDC     C638660   5.659  10.993   8.797 -0.4406 -0.2152 -0.7691
 3515UDC     C738661   5.786  11.052   8.873  0.2029  0.9632 -0.2632
 3515UDC     C838662   5.920  10.996   8.842 -0.0251 -0.0026 -0.2905
 3515UDC     C938663   5.954  11.025   8.700 -1.0786 -1.1791  0.5200
 3515UDC    C1038664   6.096  10.969   8.719  0.4859  0.4676  0.4976
 3515UDC    C1138665   6.066  10.819   8.735  0.4250  0.5606  0.5656
 3516UDC     C138666  16.364   7.425   6.405  0.1344  0.0863 -0.1740
 3516UDC     C238667  16.361   7.417   6.560  0.5988  0.7887 -0.1333
 3516UDC     C338668  16.501   7.397   6.615  0.0600  0.0643  0.0601
 3516UDC     C438669  16.496   7.305   6.739  0.2469  0.6302  1.0202
 3516UDC     C538670  16.621   7.224   6.776  0.1078 -1.0044 -0.1696
 3516UDC     C638671  16.674   7.125   6.675  0.3291 -0.2141  0.8427
 3516UDC     C738672  16.714   7.002   6.759  0.5877 -0.1014 -1.3611
 3516UDC     C838673  16.830   7.029   6.851  0.6297 -0.0689 -0.1271
 3516UDC     C938674  16.875   6.899   6.928 -1.0821 -0.8702 -0.1882
 3516UDC    C1038675  17.013   6.905   7.001  0.9443  0.3443  0.5122
 3516UDC    C1138676  17.048   6.771   7.076  0.1128  0.2968  0.0141
 3517UDC     C138677   5.653  19.859   7.944  0.1706 -0.9651 -0.4815
 3517UDC     C238678   5.672  19.856   7.798  0.3816  0.0600 -0.4387
 3517UDC     C338679   5.813  19.881   7.753 -0.2106  0.5943 -0.3010
 3517UDC     C438680   5.805  20.028   7.695  0.0715  0.0819 -0.7491
 3517UDC     C538681   5.928  20.037   7.603  0.0498  0.0457 -0.0292
 3517UDC     C638682   5.962  20.163   7.517 -0.2322  0.9091 -1.1353
 3517UDC     C738683   6.005  20.286   7.603  0.3639  1.6596  1.3900
 3517UDC     C838684   6.010  20.417   7.532 -0.3258 -1.5808  0.5535
 3517UDC     C938685   6.145  20.491   7.557  0.2088 -0.6236  0.1934
 3517UDC    C1038686   6.239  20.540   7.435 -0.7213  0.1897 -0.0275
 3517UDC    C1138687   6.344  20.633   7.483 -0.1183 -0.4692  1.0732
 3518UDC     C138688  18.840  15.012   3.480 -0.4628  0.5939  0.1919
 3518UDC     C238689  18.951  15.117   3.519  0.1678  0.0493 -1.3924
 3518UDC     C338690  19.094  15.071   3.548 -0.3147 -0.4400 -0.2314
 3518UDC     C438691  19.194  15.166   3.475  0.5244 -0.9175  0.2287
 3518UDC     C538692  19.342  15.145   3.502  1.1622  0.9136  0.6787
 3518UDC     C638693  19.399  15.034   3.404  0.3276 -0.9475 -0.0862
 3518UDC     C738694  19.548  15.062   3.351 -0.1390  0.2262 -0.1156
 3518UDC     C838695  19.550  15.005   3.213  0.7442  0.5642  0.2640
 3518UDC     C938696  19.445  15.076   3.115  0.8611 -0.6281 -0.3536
 3518UDC    C1038697  19.486  15.062   2.965 -0.1809 -0.9235  0.2809
 3518UDC    C1138698  19.381  14.987   2.867  0.2929  0.3306 -0.9277
 3519UDC     C138699   3.762  10.809  12.729 -0.4478  0.1615  0.7202
 3519UDC     C238700   3.819  10.708  12.634  1.0797 -0.3477  0.2118
 3519UDC     C338701   3.966  10.676  12.628  0.2663  1.5134 -0.0995
 3519UDC     C438702   3.972  10.564  12.516 -0.2485  0.8044 -1.1274
 3519UDC     C538703   4.105  10.539  12.443  0.3786 -0.3604  0.3415
 3519UDC     C638704   4.089  10.433  12.331 -0.1056 -0.0352 -0.0352
 3519UDC     C738705   4.209  10.454  12.236 -0.1452  0.4928  0.1227
 3519UDC     C838706   4.248  10.331  12.148 -0.3670  1.0229  0.1614
 3519UDC     C938707   4.131  10.278  12.052 -0.9042 -0.7583  0.1691
 3519UDC    C1038708   4.163  10.179  11.943  0.4111  0.0218  1.2981
 3519UDC    C1138709   4.050  10.141  11.845  0.7663  0.7698 -0.2986
 3520UDC     C138710   6.402   9.494  13.501 -0.5037  0.1247  0.5153
 3520UDC     C238711   6.267   9.441  13.565 -0.8636  0.2252 -0.5538
 3520UDC     C338712   6.286   9.290  13.602  0.8742 -0.8046 -0.1992
 3520UDC     C438713   6.289   9.194  13.488 -0.5461 -0.1633 -0.0886
 3520UDC     C538714   6.160   9.194  13.414  0.4404  0.3630  0.6373
 3520UDC     C638715   6.189   9.176  13.266 -1.4260  0.2178  0.2713
 3520UDC     C738716   6.066   9.122  13.197  0.0110  0.8439  1.0661
 3520UDC     C838717   5.946   9.210  13.216 -0.5130 -0.2653  1.4652
 3520UDC     C938718   5.835   9.195  13.113 -1.1917  0.7040 -0.0942
 3520UDC    C1038719   5.716   9.292  13.098 -0.8971 -0.2796  0.3790
 3520UDC    C1138720   5.782   9.415  13.041 -0.2583  0.3353 -0.6081
 3521UDC     C138721   6.467  15.043  13.354 -0.0089 -0.0475  0.8492
 3521UDC     C238722   6.360  15.132  13.418 -0.4497  0.8193 -0.2401
 3521UDC     C338723   6.233  15.052  13.462  1.0966  0.9111  0.6283
 3521UDC     C438724   6.160  15.144  13.575 -0.1696  0.4504  1.3108
 3521UDC     C538725   6.143  15.294  13.559 -0.3781  0.4434  0.1175
 3521UDC     C638726   6.063  15.341  13.679 -0.1767 -0.4328  0.3199
 3521UDC     C738727   6.004  15.484  13.679  0.6339  0.2050 -0.0018
 3521UDC     C838728   5.874  15.496  13.754  0.0819 -0.1904 -0.5667
 3521UDC     C938729   5.806  15.621  13.697  0.6780 -0.0578  0.4255
 3521UDC    C1038730   5.673  15.665  13.755  0.9590  0.0763  0.0231
 3521UDC    C1138731   5.632  15.806  13.699 -0.0443 -0.0317  0.3242
 3522UDC     C138732  18.140  18.990  17.599 -0.0860 -0.6825 -0.0977
 3522UDC     C238733  18.006  18.942  17.542 -0.0483  0.7959 -1.5258
 3522UDC     C338734  17.914  19.052  17.488 -1.0681  0.4856  0.3889
 3522UDC     C438735  17.791  19.073  17.588 -0.7902 -0.3874 -0.0401
 3522UDC     C538736  17.822  19.201  17.672  0.3996 -0.3592 -0.2453
 3522UDC     C638737  17.727  19.230  17.789  0.3942  0.1614 -1.1746
 3522UDC     C738738  17.758  19.352  17.878 -0.2214  0.1542  0.5164
 3522UDC     C838739  17.756  19.495  17.824  0.0746 -1.2227 -0.1972
 3522UDC     C938740  17.738  19.608  17.927  0.4960  0.4326 -0.0646
 3522UDC    C1038741  17.777  19.752  17.881 -0.0789  0.1782 -0.6323
 3522UDC    C1138742  17.930  19.779  17.857 -1.1623 -0.4634 -0.0569
 3523UDC     C138743  14.550  14.694   8.641  0.4556 -0.0038 -0.7729
 3523UDC     C238744  14.425  14.675   8.731  0.4243  0.3938 -0.1630
 3523UDC     C338745  14.328  14.561   8.699  0.0406  0.4426  0.8150
 3523UDC     C438746  14.392  14.435   8.635  0.5158 -0.6162  0.4953
 3523UDC     C538747  14.303  14.326   8.563  0.1536  0.3820  0.3662
 3523UDC     C638748  14.256  14.363   8.417  1.1830  0.5565  0.1493
 3523UDC     C738749  14.366  14.368   8.312 -0.1449  0.1456 -0.7500
 3523UDC     C838750  14.324  14.408   8.170 -0.2064  0.2365 -1.3779
 3523UDC     C938751  14.310  14.296   8.073 -0.0526 -0.6415 -0.2285
 3523UDC    C1038752  14.429  14.215   8.039  0.5893 -1.4269  0.1016
 3523UDC    C1138753  14.407  14.098   7.939  0.1726 -0.1454  0.3074
 3524UDC     C138754  17.472   8.615  18.022  0.4169  0.1411 -0.9832
 3524UDC     C238755  17.466   8.639  18.176  0.2894  0.8282  1.3837
 3524UDC     C338756  17.314   8.655  18.216  1.7065 -0.2478  0.3469
 3524UDC     C438757  17.273   8.539  18.298  0.4109  1.7064 -0.6807
 3524UDC     C538758  17.127   8.497  18.270 -0.0035  0.1886  0.1068
 3524UDC     C638759  17.099   8.497  18.123 -0.3281 -0.1393 -0.8699
 3524UDC     C738760  16.950   8.483  18.106  0.3252  0.6319  0.1929
 3524UDC     C838761  16.856   8.580  18.181  0.1083 -0.2932  0.8902
 3524UDC     C938762  16.871   8.726  18.133 -1.6163  0.0257  0.1160
 3524UDC    C1038763  16.828   8.757  17.992 -0.4889 -0.3472 -0.3464
 3524UDC    C1138764  16.925   8.867  17.928  1.6647 -0.1444 -0.8920
 3525UDC     C138765   6.081   8.780  11.542  0.4973 -0.4799 -0.5161
 3525UDC     C238766   6.167   8.758  11.676 -0.1264 -0.1084 -0.0384
 3525UDC     C338767   6.285   8.860  11.691 -0.7420 -0.1808  0.4012
 3525UDC     C438768   6.372   8.831  11.813  0.3151  0.6204 -1.2178
 3525UDC     C538769   6.465   8.707  11.797  0.5495  0.0441  0.1801
 3525UDC     C638770   6.594   8.695  11.880 -1.0674  1.8514  0.5445
 3525UDC     C738771   6.698   8.811  11.839  0.4576  0.3980 -0.7031
 3525UDC     C838772   6.819   8.806  11.931 -0.5410  0.5662 -0.8317
 3525UDC     C938773   6.830   8.918  12.043  0.1279 -0.1731  0.5515
 3525UDC    C1038774   6.960   8.896  12.122  0.8117 -0.7088 -0.1456
 3525UDC    C1138775   6.986   9.032  12.191  0.5021 -0.2089  0.6925
 3526UDC     C138776  10.736   9.522   1.048  0.2924 -0.1365 -0.0002
 3526UDC     C238777  10.642   9.408   1.071  0.7154  0.7413  0.9868
 3526UDC     C338778  10.700   9.278   1.020 -0.8474  0.8247  0.1024
 3526UDC     C438779  10.593   9.164   1.045  1.0987  1.2239 -0.1985
 3526UDC     C538780  10.490   9.144   0.939 -0.4098  0.3570  0.5239
 3526UDC     C638781  10.417   9.009   0.951  0.0005  0.6664 -0.0936
 3526UDC     C738782  10.308   8.974   0.847 -0.6730  0.6412 -0.3448
 3526UDC     C838783  10.246   9.109   0.821 -0.0996  0.2412  0.4270
 3526UDC     C938784  10.120   9.097   0.750 -0.6120  0.3234  0.2528
 3526UDC    C1038785  10.024   9.210   0.775  1.0638 -0.2236  0.6138
 3526UDC    C1138786  10.051   9.336   0.682 -0.5859 -0.8865 -0.1848
 3527UDC     C138787  18.955  13.349  18.510  0.1398  0.3002  0.2239
 3527UDC     C238788  19.065  13.456  18.495  0.1810  0.5629 -0.0045
 3527UDC     C338789  19.032  13.561  18.387 -0.9679 -0.1180 -0.6002
 3527UDC     C438790  18.896  13.588  18.334  0.0346 -0.0723  0.3968
 3527UDC     C538791  18.908  13.653  18.195  0.1496  0.3015  0.6871
 3527UDC     C638792  18.779  13.700  18.120  0.5087 -0.2514 -0.2710
 3527UDC     C738793  18.793  13.808  18.014  0.0031  0.4060  0.0163
 3527UDC     C838794  18.706  13.787  17.895  0.6094  0.6354 -0.1501
 3527UDC     C938795  18.708  13.917  17.812  0.4514  0.4409 -1.0510
 3527UDC    C1038796  18.821  13.923  17.707 -0.4840  0.4835  0.6566
 3527UDC    C1138797  18.781  13.806  17.615 -0.0345 -0.4832  0.7535
 3528UDC     C138798  13.982  12.336   5.199 -1.1653  0.5792 -0.9658
 3528UDC     C238799  13.906  12.353   5.066 -0.0467  0.7203 -0.4105
 3528UDC     C338800  13.770  12.417   5.072 -0.2258 -1.0208 -1.1621
 3528UDC     C438801  13.659  12.314   5.113  0.2085  0.2790 -0.4604
 3528UDC     C538802  13.524  12.390   5.105 -1.1465  0.4381 -0.8975
 3528UDC     C638803  13.522  12.535   5.149  0.4366  0.7882 -0.5476
 3528UDC     C738804  13.420  12.566   5.256 -0.7017 -0.6729 -0.3870
 3528UDC     C838805  13.427  12.709   5.318 -0.7587 -0.0140  0.0844
 3528UDC     C938806  13.321  12.755   5.420  0.8886 -0.9308  1.0271
 3528UDC    C1038807  13.311  12.668   5.550 -0.0512 -0.5650 -0.0880
 3528UDC    C1138808  13.219  12.700   5.670 -0.6240  0.2001 -0.6826
 3529UDC     C138809  19.394   0.160  14.476  0.6652 -1.1807 -0.4978
 3529UDC     C238810  19.438   0.296  14.416  0.5285  1.4194  1.0306
 3529UDC     C338811  19.583   0.336  14.439 -0.1199 -0.0904 -0.4575
 3529UDC     C438812  19.629   0.306  14.584 -0.1652  0.0524 -0.1918
 3529UDC     C538813  19.769   0.365  14.618 -0.5435  0.1723  0.0019
 3529UDC     C638814  19.781   0.517  14.595 -0.0127  0.9492 -0.4639
 3529UDC     C738815  19.889   0.554  14.491  0.4226 -0.5662  1.5642
 3529UDC     C838816  19.912   0.705  14.485  0.8852  0.6945 -0.5177
 3529UDC     C938817  20.006   0.766  14.367 -0.3325  0.6768  0.0272
 3529UDC    C1038818  20.041   0.907  14.388  1.2889  0.8536 -0.9372
 3529UDC    C1138819  19.919   0.990  14.433  1.0121 -0.3498  0.6500
 3530UDC     C138820  17.509   2.209   2.036 -0.4906 -1.2197  0.0919
 3530UDC     C238821  17.564   2.342   2.102 -0.0671 -0.0769 -0.4987
 3530UDC     C338822  17.702   2.315   2.165 -0.1328  0.6919  1.2778
 3530UDC     C438823  17.715   2.286   2.315  0.8535 -1.2773  0.2027
 3530UDC     C538824  17.847   2.212   2.344 -0.6218  0.9712 -0.3574
 3530UDC     C638825  17.973   2.299   2.365 -0.9292 -2.5403 -0.0437
 3530UDC     C738826  18.109   2.225   2.401 -0.2968 -1.0139 -0.2855
 3530UDC     C838827  18.178   2.195   2.270  0.9699 -0.2183  0.8996
 3530UDC     C938828  18.159   2.056   2.220 -0.2878  0.2000  0.6842
 3530UDC    C1038829  18.238   2.054   2.100 -0.5007 -0.4937 -0.0144
 3530UDC    C1138830  18.372   2.127   2.113 -0.1165 -0.1423 -0.0749
 3531UDC     C138831   8.873  12.918  12.295  0.4623  0.1723  0.4568
 3531UDC     C238832   8.983  12.986  12.379 -0.4604 -0.1362  0.9841
 3531UDC     C338833   8.996  12.946  12.522  0.1654  0.9049 -0.4401
 3531UDC     C438834   8.854  12.951  12.586 -0.8205  0.9993 -1.2478
 3531UDC     C538835   8.874  12.969  12.734  0.6486  0.9629  0.4763
 3531UDC     C638836   8.739  12.980  12.810 -0.1731 -0.2164 -0.4809
 3531UDC     C738837   8.754  13.059  12.949 -0.3127 -0.0653  0.7570
 3531UDC     C838838   8.637  13.092  13.038  0.5354  0.0898  0.4806
 3531UDC     C938839   8.553  12.969  13.090 -1.2553 -0.3437 -0.5404
 3531UDC    C1038840   8.428  12.998  13.176 -0.3229  0.6032 -0.9350
 3531UDC    C1138841   8.345  12.874  13.215  0.0065 -0.8029 -0.3358
 3532UDC     C138842  15.099   2.142   4.980 -0.1691  1.1448  0.4347
 3532UDC     C238843  14.999   2.039   5.036  0.6017 -0.0455  1.1759
 3532UDC     C338844  15.035   1.918   4.946 -1.0967 -0.6930 -0.1172
 3532UDC     C438845  15.022   1.960   4.807 -0.5656 -1.5247  0.9021
 3532UDC     C538846  14.875   1.979   4.759  0.8581 -0.4314 -0.4045
 3532UDC     C638847  14.826   2.118   4.711  0.3654  0.8249 -0.7288
 3532UDC     C738848  14.794   2.105   4.562 -1.0586 -0.8246 -0.2789
 3532UDC     C838849  14.728   2.214   4.487  1.2092  0.7577  0.5679
 3532UDC     C938850  14.739   2.199   4.334 -0.4984 -1.1349 -0.0377
 3532UDC    C1038851  14.638   2.105   4.274  0.1445  1.1487 -0.2555
 3532UDC    C1138852  14.696   1.963   4.286 -0.0383 -0.3115 -0.4320
 3533UDC     C138853  13.221  15.536  19.101  0.6691 -0.6062 -0.8661
 3533UDC     C238854  13.080  15.475  19.123 -0.8485  0.4270  0.9656
 3533UDC     C338855  12.993  15.575  19.205 -0.2996  0.3552  0.0744
 3533UDC     C438856  12.993  15.704  19.127 -0.8881 -0.4674  0.1587
 3533UDC     C538857  12.849  15.731  19.093  0.4638  0.2060 -0.2512
 3533UDC     C638858  12.818  15.856  19.007  0.8948  1.0830  0.1449
 3533UDC     C738859  12.870  15.820  18.864  0.1373 -0.5158 -1.1740
 3533UDC     C838860  12.828  15.910  18.750  0.3644 -0.4431  1.2448
 3533UDC     C938861  12.882  15.874  18.611  0.0749  1.0763  0.5363
 3533UDC    C1038862  13.038  15.883  18.594  0.0727 -0.8415 -0.3326
 3533UDC    C1138863  13.096  16.026  18.562  0.8585  0.1739 -0.3985
 3534UDC     C138864  10.689  10.696   6.540  0.7079 -0.5115  0.8646
 3534UDC     C238865  10.664  10.552   6.508  1.5000 -0.8465  0.5446
 3534UDC     C338866  10.766  10.446   6.526 -0.0184 -0.3109  0.1931
 3534UDC     C438867  10.871  10.456   6.634 -1.5495 -0.6476 -1.3869
 3534UDC     C538868  10.997  10.366   6.620 -0.2690  0.5486  0.6297
 3534UDC     C638869  11.068  10.391   6.487  0.3498 -0.4975 -0.5899
 3534UDC     C738870  11.171  10.276   6.458  0.0792 -0.7083  0.5343
 3534UDC     C838871  11.299  10.284   6.543  0.8149  0.6778  1.0206
 3534UDC     C938872  11.426  10.212   6.493  0.0661 -0.9705 -0.2822
 3534UDC    C1038873  11.440  10.073   6.545  0.8234  0.9943 -0.4877
 3534UDC    C1138874  11.488  10.067   6.693  0.9647  0.2564 -0.8297
 3535UDC     C138875   6.096  16.188   7.827  1.0011 -0.8875 -0.3207
 3535UDC     C238876   6.117  16.267   7.693 -0.5711  0.1127  0.2983
 3535UDC     C338877   6.145  16.173   7.576 -0.4530  0.2388  0.4508
 3535UDC     C438878   6.270  16.085   7.592 -0.3514 -0.5014 -0.2200
 3535UDC     C538879   6.297  15.996   7.472 -0.1489 -0.0415 -0.0041
 3535UDC     C638880   6.193  15.888   7.472  0.2801 -0.3262 -0.4239
 3535UDC     C738881   6.155  15.829   7.606 -0.7381 -0.5487 -0.6011
 3535UDC     C838882   6.062  15.702   7.608  0.6933 -0.1028 -0.4894
 3535UDC     C938883   5.939  15.721   7.520 -0.6671  0.4574 -0.5033
 3535UDC    C1038884   5.923  15.626   7.398  0.6136 -0.4392  0.1153
 3535UDC    C1138885   5.787  15.635   7.311 -1.5695  0.4255  0.4852
 3536UDC     C138886   8.834  19.804  10.451  0.1668 -1.0128 -0.7962
 3536UDC     C238887   8.824  19.747  10.594  1.1671 -0.1783 -0.7112
 3536UDC     C338888   8.929  19.643  10.637 -0.0687 -0.9376  0.5557
 3536UDC     C438889   8.889  19.556  10.765 -0.5246 -1.5620 -0.5119
 3536UDC     C538890   8.815  19.646  10.875  0.3598 -0.4428  0.3554
 3536UDC     C638891   8.750  19.570  11.000  0.5846 -0.8334 -0.2105
 3536UDC     C738892   8.819  19.441  11.040 -1.5947  0.0417 -0.2433
 3536UDC     C838893   8.939  19.455  11.127  0.4919  0.9604  1.0831
 3536UDC     C938894   9.004  19.329  11.180 -0.9867  0.1900 -0.7823
 3536UDC    C1038895   8.995  19.209  11.088 -0.5881 -0.9873 -0.2134
 3536UDC    C1138896   9.077  19.093  11.136 -0.1598 -0.1792 -0.0260
 3537UDC     C138897   9.316   1.330   8.346  0.7495  0.5287 -0.5774
 3537UDC     C238898   9.424   1.402   8.426 -0.0608 -0.4219 -0.4048
 3537UDC     C338899   9.400   1.403   8.581  0.3347  0.1821 -0.4205
 3537UDC     C438900   9.321   1.270   8.617  1.5978  0.4010  0.2298
 3537UDC     C538901   9.416   1.153   8.602 -0.8222 -0.4500  0.3140
 3537UDC     C638902   9.542   1.160   8.693  0.2587 -1.6652 -0.8265
 3537UDC     C738903   9.621   1.034   8.676 -0.7129  0.2035 -0.8483
 3537UDC     C838904   9.755   1.036   8.752  0.2205  1.1175  0.0049
 3537UDC     C938905   9.736   1.007   8.905  0.0740  1.0276 -0.1630
 3537UDC    C1038906   9.839   0.907   8.971  0.5922 -0.6763  0.9677
 3537UDC    C1138907   9.979   0.902   8.907 -0.2763  0.5532  0.8350
 3538UDC     C138908  17.060  12.102  18.078  0.0387 -0.2109 -0.0589
 3538UDC     C238909  16.999  11.974  18.018  0.5566  0.2096  0.2331
 3538UDC     C338910  16.914  12.013  17.900 -0.4352 -0.4855 -0.7916
 3538UDC     C438911  16.846  11.894  17.832 -0.4544  0.4745  0.8451
 3538UDC     C538912  16.925  11.802  17.743  1.1427 -0.3083 -0.4774
 3538UDC     C638913  16.967  11.849  17.607 -1.0807 -0.3222  0.8875
 3538UDC     C738914  16.843  11.831  17.516  0.2627 -0.1094  0.5090
 3538UDC     C838915  16.862  11.845  17.366  0.4854 -0.0729  0.4718
 3538UDC     C938916  16.739  11.834  17.282 -0.2852  0.5418  1.8543
 3538UDC    C1038917  16.643  11.953  17.300 -0.0330  0.1341 -0.2056
 3538UDC    C1138918  16.535  11.953  17.199  0.4335  0.0757  0.1853
 3539UDC     C138919  14.757   9.000   7.150  0.5936 -0.4389  0.1430
 3539UDC     C238920  14.772   8.916   7.028  0.3171  0.3220 -0.0098
 3539UDC     C338921  14.826   8.769   7.051 -0.0839  0.2732  0.5463
 3539UDC     C438922  14.841   8.699   6.913 -0.2261 -0.1138 -0.9717
 3539UDC     C538923  14.964   8.736   6.831  0.4238 -0.2805  1.0731
 3539UDC     C638924  14.978   8.646   6.705  0.4845 -0.0690 -0.6203
 3539UDC     C738925  15.079   8.540   6.743 -0.8327  0.6053  0.3763
 3539UDC     C838926  15.142   8.460   6.635 -0.4276 -0.2112 -0.5884
 3539UDC     C938927  15.251   8.356   6.680  0.5644 -0.2491  0.1065
 3539UDC    C1038928  15.319   8.290   6.564 -0.3390  0.9139  0.1407
 3539UDC    C1138929  15.337   8.379   6.445 -0.2816  0.2315  0.4993
 3540UDC     C138930  17.270  15.626  11.373 -1.0675 -0.2181 -0.7839
 3540UDC     C238931  17.207  15.546  11.490  0.8144 -0.8220  0.5264
 3540UDC     C338932  17.118  15.613  11.592  1.2126  0.6774  0.2781
 3540UDC     C438933  17.202  15.696  11.683  0.3687 -0.4619 -1.2244
 3540UDC     C538934  17.131  15.799  11.772  0.2223 -0.4276 -0.5865
 3540UDC     C638935  17.243  15.893  11.816  0.4079 -0.2160  0.2604
 3540UDC     C738936  17.313  15.968  11.699 -0.2861 -0.7850  0.0112
 3540UDC     C838937  17.405  16.088  11.734  0.3449  0.9199  0.1260
 3540UDC     C938938  17.477  16.053  11.864 -0.5248  0.7470  0.4593
 3540UDC    C1038939  17.596  16.152  11.887  0.1560 -0.6176 -0.0532
 3540UDC    C1138940  17.731  16.083  11.935  0.4845  0.1124 -0.3410
 3541UDC     C138941  12.059  12.989   3.842  0.7024  0.3461 -0.3635
 3541UDC     C238942  11.962  12.946   3.949 -0.0262 -0.6241  0.5175
 3541UDC     C338943  11.935  13.051   4.061 -0.2755  0.6767 -0.4823
 3541UDC     C438944  11.804  13.067   4.138 -0.5570  0.3733  0.5563
 3541UDC     C538945  11.773  13.203   4.182 -0.8594  0.3800 -0.9595
 3541UDC     C638946  11.640  13.245   4.256  0.0640  0.4375  0.7765
 3541UDC     C738947  11.646  13.379   4.330 -0.0344  0.7585  1.2133
 3541UDC     C838948  11.573  13.354   4.458  0.4051  1.1028  0.1167
 3541UDC     C938949  11.484  13.472   4.521 -0.3434  0.4557  0.9034
 3541UDC    C1038950  11.547  13.569   4.616 -0.3635 -0.7272  0.4077
 3541UDC    C1138951  11.597  13.488   4.737  0.2140 -0.0514 -0.6161
 3542UDC     C138952   8.887  11.805  14.099  0.7285 -0.8562  0.1220
 3542UDC     C238953   8.913  11.659  14.141  0.2209 -0.1509 -0.3882
 3542UDC     C338954   8.808  11.571  14.084 -0.3293  0.3028 -0.6527
 3542UDC     C438955   8.821  11.422  14.120 -0.9328  0.4591 -0.1800
 3542UDC     C538956   8.733  11.318  14.050 -0.1613  0.8423  0.1636
 3542UDC     C638957   8.583  11.313  14.101 -0.9318  0.2459 -0.8684
 3542UDC     C738958   8.489  11.278  13.990 -0.2936  0.0109 -1.2100
 3542UDC     C838959   8.336  11.264  14.040  0.2098 -0.1940  0.3461
 3542UDC     C938960   8.313  11.401  14.105 -0.5348  0.5762  0.3066
 3542UDC    C1038961   8.176  11.422  14.179 -0.3238  0.3029 -0.0931
 3542UDC    C1138962   8.059  11.422  14.079  0.2446 -0.7445  0.8625
 3543UDC     C138963  14.384  19.410  14.195 -0.3858  0.4591 -0.1664
 3543UDC     C238964  14.480  19.297  14.136 -0.2009 -0.2951 -0.4536
 3543UDC     C338965  14.621  19.328  14.077  0.4007  0.4549 -0.9041
 3543UDC     C438966  14.743  19.237  14.069  0.4198  0.0718 -0.1412
 3543UDC     C538967  14.838  19.280  13.963 -0.4348 -0.2941  0.9466
 3543UDC     C638968  14.915  19.410  14.002 -0.6444 -0.5907  0.8613
 3543UDC     C738969  15.009  19.383  14.124 -0.3414 -0.8718 -0.5841
 3543UDC     C838970  15.102  19.509  14.167 -0.0901  0.4450  0.5150
 3543UDC     C938971  15.223  19.534  14.079 -0.6875  0.8996  0.4402
 3543UDC    C1038972  15.244  19.686  14.053 -0.0524 -0.2273 -0.8775
 3543UDC    C1138973  15.370  19.743  13.984 -0.5565  0.3901 -0.5252
 3544UDC     C138974  17.484   5.389  11.104  1.0311 -0.6446 -0.6119
 3544UDC     C238975  17.479   5.234  11.093  0.9799 -0.1433 -0.6394
 3544UDC     C338976  17.440   5.179  10.956 -0.2064 -0.1966 -0.0847
 3544UDC     C438977  17.502   5.283  10.850  0.2895  0.3812  0.2749
 3544UDC     C538978  17.523   5.210  10.719 -1.4024 -0.0939 -0.8801
 3544UDC     C638979  17.608   5.313  10.637 -0.1299 -0.8717  0.7805
 3544UDC     C738980  17.626   5.245  10.500 -0.0587 -0.0162 -0.3967
 3544UDC     C838981  17.743   5.299  10.423 -0.0774  0.3919 -0.9044
 3544UDC     C938982  17.884   5.234  10.449  0.8970 -0.2560  0.5996
 3544UDC    C1038983  17.982   5.346  10.488 -0.6138 -0.0817  0.2780
 3544UDC    C1138984  18.132   5.292  10.494 -0.1075  0.3650  0.3902
 3545UDC     C138985  10.534   5.384   3.758  0.0039 -1.0319 -0.3652
 3545UDC     C238986  10.597   5.481   3.660 -0.7040 -0.7596  0.6826
 3545UDC     C338987  10.511   5.476   3.523  0.7070  1.0031 -0.0740
 3545UDC     C438988  10.573   5.550   3.403 -0.1729  0.0850 -0.0342
 3545UDC     C538989  10.497   5.540   3.273  0.0522 -1.2533 -0.2683
 3545UDC     C638990  10.438   5.675   3.228  0.5979 -0.0983 -0.4839
 3545UDC     C738991  10.384   5.687   3.079 -0.4237 -0.4161 -0.3561
 3545UDC     C838992  10.506   5.699   2.987 -1.1051  0.8882  0.1336
 3545UDC     C938993  10.470   5.668   2.843 -0.3354 -0.7750 -0.0355
 3545UDC    C1038994  10.421   5.524   2.839 -0.3120  0.0071 -0.6314
 3545UDC    C1138995  10.384   5.488   2.692  0.2139  0.4029  0.4882
 3546UDC     C138996  13.817  13.146  15.619  0.0078 -0.5491  1.1570
 3546UDC     C238997  13.761  13.206  15.491  0.2340  1.2910  0.5601
 3546UDC     C338998  13.815  13.347  15.489 -0.6668  0.1718 -0.4390
 3546UDC     C438999  13.733  13.452  15.564 -0.2331 -1.4695 -0.6444
 3546UDC     C539000  13.800  13.592  15.551 -0.1930  0.4121 -0.4302
 3546UDC     C639001  13.954  13.601  15.558  0.2801 -0.7108  0.2398
 3546UDC     C739002  14.003  13.596  15.703 -0.6535  0.0652  0.5866
 3546UDC     C839003  14.151  13.634  15.730 -0.5940 -0.2861 -0.1659
 3546UDC     C939004  14.189  13.738  15.623  0.5963 -0.7054 -1.0519
 3546UDC    C1039005  14.338  13.763  15.610 -0.6920  0.5470  0.2642
 3546UDC    C1139006  14.380  13.896  15.537  0.4792 -0.7415  0.0463
 3547UDC     C139007  13.508  15.036   2.886 -0.5644  1.0022 -1.0438
 3547UDC     C239008  13.516  14.980   3.030  0.2133  1.6866  1.2037
 3547UDC     C339009  13.604  14.858   3.047  0.3905  0.3214  0.3419
 3547UDC     C439010  13.630  14.831   3.199 -1.8717 -1.3895 -0.3456
 3547UDC     C539011  13.531  14.735   3.265  0.5618 -0.5384  0.0174
 3547UDC     C639012  13.593  14.673   3.398 -0.9795 -0.3388  0.7256
 3547UDC     C739013  13.664  14.781   3.481 -0.7991  0.2941 -0.3378
 3547UDC     C839014  13.704  14.749   3.629 -0.1704  0.0216  0.8627
 3547UDC     C939015  13.802  14.637   3.646 -0.4206  1.0604  0.0288
 3547UDC    C1039016  13.945  14.695   3.645 -0.1807  0.0513 -0.6920
 3547UDC    C1139017  14.054  14.611   3.718 -0.8231 -1.0004  0.1804
 3548UDC     C139018   5.997  10.823  16.874  0.2213 -0.0377  0.1711
 3548UDC     C239019   5.922  10.750  16.986  0.2152  0.1354 -0.1159
 3548UDC     C339020   5.773  10.798  17.012  0.4317 -0.3320  0.3410
 3548UDC     C439021   5.723  10.728  17.140 -0.1101  0.0630  0.5443
 3548UDC     C539022   5.731  10.573  17.157 -0.2113 -1.0096  0.8247
 3548UDC     C639023   5.723  10.511  17.289 -0.1331  0.5657 -0.8049
 3548UDC     C739024   5.861  10.528  17.364 -1.0175 -0.4151  0.1986
 3548UDC     C839025   5.847  10.489  17.511  1.0751 -0.7662  1.0771
 3548UDC     C939026   5.993  10.469  17.546 -1.1183  0.1273 -0.4899
 3548UDC    C1039027   6.013  10.413  17.691  0.7362 -0.2150 -0.6681
 3548UDC    C1139028   6.114  10.311  17.728  0.0665  0.0307 -0.1375
 3549UDC     C139029   0.879  19.956  13.826  0.9421 -0.5741 -0.2658
 3549UDC     C239030   0.782  19.895  13.724  0.3887 -0.7320  0.2224
 3549UDC     C339031   0.849  19.762  13.690  0.8065 -0.5388 -0.2754
 3549UDC     C439032   0.756  19.652  13.634 -1.1406  0.5435  0.7285
 3549UDC     C539033   0.647  19.593  13.717  0.3972  0.7600 -0.6262
 3549UDC     C639034   0.496  19.619  13.687  0.0684  0.3850  0.1102
 3549UDC     C739035   0.457  19.554  13.553 -0.4644 -0.5845  0.0061
 3549UDC     C839036   0.326  19.616  13.488  0.4101  0.1184 -0.0911
 3549UDC     C939037   0.309  19.770  13.463  0.3497  0.5287  0.8573
 3549UDC    C1039038   0.227  19.811  13.339 -0.0836 -0.9141  0.2043
 3549UDC    C1139039   0.232  19.967  13.320  0.8035  0.2783  0.9022
 3550UDC     C139040  11.238   0.905   7.983  0.0481  0.2319  0.1382
 3550UDC     C239041  11.272   0.910   7.831 -0.4257 -0.0998 -0.1314
 3550UDC     C339042  11.288   1.060   7.803  0.6148  0.1812  0.8728
 3550UDC     C439043  11.218   1.105   7.671  1.1443  0.2334  0.1791
 3550UDC     C539044  11.076   1.150   7.691  0.0613  0.5421 -1.0973
 3550UDC     C639045  11.048   1.281   7.773 -0.5649  0.1261 -0.0312
 3550UDC     C739046  10.897   1.305   7.779  0.4141 -0.8483  0.6183
 3550UDC     C839047  10.838   1.446   7.782 -0.6636 -0.5121 -1.1586
 3550UDC     C939048  10.789   1.486   7.921 -0.5550 -0.1750 -0.1568
 3550UDC    C1039049  10.646   1.527   7.929 -0.0897  0.4912  0.0836
 3550UDC    C1139050  10.573   1.449   8.036 -0.7168  0.3035 -0.3013
 3551UDC     C139051   4.904   9.746  16.528 -0.0434 -0.4459  0.4438
 3551UDC     C239052   4.929   9.801  16.385  0.1825  0.0127  0.0179
 3551UDC     C339053   4.896   9.947  16.349 -0.6695  0.0663 -0.3793
 3551UDC     C439054   5.025  10.031  16.344  0.9041 -0.1164  0.2352
 3551UDC     C539055   5.003  10.158  16.268  0.0414 -1.8449  0.2851
 3551UDC     C639056   4.930  10.280  16.326  0.2156 -1.2501 -0.4365
 3551UDC     C739057   4.944  10.401  16.222 -0.6736  1.2002 -0.6395
 3551UDC     C839058   5.009  10.520  16.279 -0.1668  0.2873 -0.1541
 3551UDC     C939059   4.967  10.668  16.235 -0.0198  0.8032  0.5328
 3551UDC    C1039060   4.992  10.710  16.082 -0.5733 -0.3972 -0.4631
 3551UDC    C1139061   4.995  10.863  16.060  0.8794 -0.4489  0.6223
 3552UDC     C139062   6.044  15.339   2.274  0.4201  0.1796  0.1973
 3552UDC     C239063   6.143  15.264   2.187  0.2103 -0.2672  0.5948
 3552UDC     C339064   6.099  15.114   2.159 -0.0462 -0.3339  0.3063
 3552UDC     C439065   6.069  15.104   2.008 -1.2888  0.2731  0.2386
 3552UDC     C539066   5.914  15.116   2.004 -0.2234  0.2541 -0.6253
 3552UDC     C639067   5.834  15.012   1.922  0.1539  0.7869 -0.5044
 3552UDC     C739068   5.860  14.996   1.768  0.5721 -0.6597 -1.6886
 3552UDC     C839069   5.795  14.859   1.726 -0.7508 -0.2139  0.6321
 3552UDC     C939070   5.643  14.868   1.750 -0.5229 -0.2632 -0.3183
 3552UDC    C1039071   5.554  14.748   1.708 -0.4034  0.4833  0.0003
 3552UDC    C1139072   5.410  14.774   1.738 -0.4415 -0.4605  0.3296
 3553UDC     C139073  19.350   6.195  17.894 -1.1423  0.8407 -0.1268
 3553UDC     C239074  19.234   6.111  17.945 -0.5781  0.8835 -0.7276
 3553UDC     C339075  19.183   6.013  17.840 -0.0759  0.8179 -0.2908
 3553UDC     C439076  19.278   5.930  17.755 -0.1013 -0.1404  0.0971
 3553UDC     C539077  19.202   5.865  17.644  0.2816 -0.1739  0.1341
 3553UDC     C639078  19.121   5.747  17.698 -0.9686 -0.2610 -0.9240
 3553UDC     C739079  18.978   5.717  17.638 -0.2668 -0.0114 -0.2677
 3553UDC     C839080  18.914   5.593  17.689  0.6019  0.9255 -1.2211
 3553UDC     C939081  18.925   5.477  17.589 -0.0611  1.0511 -0.1376
 3553UDC    C1039082  18.823   5.361  17.637 -0.5395 -0.7135  0.9662
 3553UDC    C1139083  18.857   5.310  17.777 -0.3238 -0.7985 -1.5220
 3554UDC     C139084   9.193   6.599  15.026 -0.0641  0.2264  0.2175
 3554UDC     C239085   9.225   6.677  14.893 -0.0996 -0.1128  1.1765
 3554UDC     C339086   9.207   6.581  14.773 -0.0687  0.9381 -1.2542
 3554UDC     C439087   9.340   6.508  14.772  0.1349  0.0035 -0.6609
 3554UDC     C539088   9.318   6.371  14.698 -0.4659 -0.5108 -0.1704
 3554UDC     C639089   9.259   6.406  14.559 -0.3176  1.0168 -0.1427
 3554UDC     C739090   9.268   6.286  14.464 -0.1933 -0.0371 -0.6602
 3554UDC     C839091   9.407   6.230  14.440 -0.2004  1.2621  0.9369
 3554UDC     C939092   9.395   6.121  14.331 -0.8467 -0.2103  0.2843
 3554UDC    C1039093   9.343   5.988  14.383  0.2745 -0.0052  0.6886
 3554UDC    C1139094   9.304   5.886  14.275 -1.1737  0.7969 -0.0339
 3555UDC     C139095   2.961   0.971  19.114 -0.2584  0.4184  0.6142
 3555UDC     C239096   3.004   0.825  19.078 -0.6525 -0.1155 -0.3416
 3555UDC     C339097   2.919   0.777  18.965  1.6310  1.0749  0.2861
 3555UDC     C439098   2.907   0.837  18.823  0.0169 -0.0875 -0.5744
 3555UDC     C539099   2.814   0.955  18.809  0.0924  0.2351 -0.3520
 3555UDC     C639100   2.822   1.034  18.677  0.4460 -0.8783 -0.4810
 3555UDC     C739101   2.732   1.159  18.704  1.8568  0.3544  0.4398
 3555UDC     C839102   2.723   1.254  18.580 -0.1656 -0.4942  0.8942
 3555UDC     C939103   2.604   1.343  18.602  0.5487  0.0791 -0.5973
 3555UDC    C1039104   2.474   1.268  18.554  0.9321 -0.1714 -0.2538
 3555UDC    C1139105   2.345   1.328  18.624 -0.2418  0.5479  0.4518
 3556UDC     C139106   5.779   2.288   4.932  0.3896  0.0410 -0.1807
 3556UDC     C239107   5.642   2.368   4.940  1.3246 -0.3945  0.0918
 3556UDC     C339108   5.533   2.328   5.034  0.1405 -0.3704 -0.0360
 3556UDC     C439109   5.578   2.340   5.180 -0.1839 -0.0938 -0.7737
 3556UDC     C539110   5.451   2.352   5.267 -0.4094 -0.3288  0.1498
 3556UDC     C639111   5.386   2.489   5.257  0.0571 -0.6580 -0.1783
 3556UDC     C739112   5.260   2.510   5.342 -0.2009  0.3271 -0.2416
 3556UDC     C839113   5.215   2.658   5.364  0.9809 -0.8433  0.4675
 3556UDC     C939114   5.108   2.698   5.465  0.4912 -0.8796 -0.7212
 3556UDC    C1039115   5.067   2.845   5.486 -0.2577  0.2065  1.0406
 3556UDC    C1139116   4.945   2.843   5.573  0.6672 -0.3524 -0.2430
 3557UDC     C139117   5.262   8.029   3.450  0.5731 -0.4107  0.2626
 3557UDC     C239118   5.298   8.046   3.605 -0.3448 -0.4198  1.2692
 3557UDC     C339119   5.188   7.982   3.685  0.9520 -0.5879  0.7271
 3557UDC     C439120   5.201   7.971   3.843  0.7137 -0.4729  1.0235
 3557UDC     C539121   5.081   7.941   3.928  0.0997 -0.2965 -0.5567
 3557UDC     C639122   5.112   7.956   4.081  0.6249 -1.3635 -0.0486
 3557UDC     C739123   5.006   8.010   4.171  0.6377 -0.2832 -0.6750
 3557UDC     C839124   4.858   7.961   4.147  0.4581  0.1081  0.6254
 3557UDC     C939125   4.793   7.945   4.285  0.9142  0.5763  0.0605
 3557UDC    C1039126   4.836   7.806   4.326  0.5491  0.4509  0.6293
 3557UDC    C1139127   4.728   7.747   4.421  0.2753 -0.0873  0.3643
 3558UDC     C139128  14.207  14.795   1.828 -0.2086 -0.1077  0.5631
 3558UDC     C239129  14.090  14.805   1.731 -0.0362  0.4346 -0.0019
 3558UDC     C339130  14.009  14.929   1.767  0.6547 -1.1753 -1.0100
 3558UDC     C439131  13.873  14.946   1.695 -0.3239 -0.5060  0.1572
 3558UDC     C539132  13.772  15.022   1.785  0.1068  0.0996 -0.3397
 3558UDC     C639133  13.679  15.112   1.703  0.3606  1.1250 -0.1949
 3558UDC     C739134  13.632  15.048   1.569  1.2007 -0.9070 -0.5383
 3558UDC     C839135  13.579  15.155   1.471 -0.0946  0.7302 -0.3685
 3558UDC     C939136  13.667  15.266   1.412  0.4979  0.6625  0.1573
 3558UDC    C1039137  13.585  15.393   1.383  0.6588 -1.0499  0.6642
 3558UDC    C1139138  13.516  15.408   1.247 -1.8012 -0.6680 -0.1793
 3559UDC     C139139   6.975   8.641  15.804  0.2685  0.8402 -0.5778
 3559UDC     C239140   7.020   8.684  15.656 -0.9087 -0.7182  0.1715
 3559UDC     C339141   6.913   8.772  15.581  0.4719  0.3826 -0.5334
 3559UDC     C439142   6.913   8.925  15.612 -0.6396  0.5037  0.0251
 3559UDC     C539143   6.932   9.020  15.496  0.4733 -0.3401 -0.3320
 3559UDC     C639144   7.070   9.076  15.479 -0.2217  0.9833  1.0041
 3559UDC     C739145   7.138   9.163  15.587 -1.0008 -0.2814  0.3320
 3559UDC     C839146   7.272   9.234  15.542  0.4625 -0.5658 -0.3375
 3559UDC     C939147   7.258   9.344  15.423 -0.2611 -0.6321 -0.5307
 3559UDC    C1039148   7.383   9.439  15.407  0.0984  0.5066 -0.3989
 3559UDC    C1139149   7.374   9.547  15.518  0.3018  0.1532 -0.7027
 3560UDC     C139150   2.522   5.337   6.869 -0.6744 -0.9014  0.7505
 3560UDC     C239151   2.459   5.241   6.963 -0.3029  0.2866 -1.1310
 3560UDC     C339152   2.382   5.293   7.084 -1.5146  0.0809  0.1824
 3560UDC     C439153   2.462   5.374   7.188  1.2589  0.2411 -0.0281
 3560UDC     C539154   2.383   5.438   7.303  1.2564  0.9261 -0.3430
 3560UDC     C639155   2.288   5.353   7.397 -0.1160 -0.3911  1.9343
 3560UDC     C739156   2.330   5.388   7.544 -0.4727 -0.3700 -0.4706
 3560UDC     C839157   2.253   5.306   7.653 -1.0795  0.2998  0.9500
 3560UDC     C939158   2.221   5.149   7.633 -0.1117 -0.3868  0.1816
 3560UDC    C1039159   2.080   5.128   7.693  0.5880 -0.5801 -0.7433
 3560UDC    C1139160   1.967   5.220   7.636  0.5563  0.6304 -0.3241
 3561UDC     C139161  19.397   0.435  14.881 -0.0448  0.2430 -0.4102
 3561UDC     C239162  19.498   0.490  14.982 -0.3115  0.2729  0.5913
 3561UDC     C339163  19.571   0.624  14.941  0.5345 -0.2267  1.1307
 3561UDC     C439164  19.456   0.732  14.914 -1.4782  0.3697  0.3403
 3561UDC     C539165  19.469   0.809  14.784 -0.0688  0.0975  0.0203
 3561UDC     C639166  19.605   0.863  14.750 -0.5085  0.4946  0.6687
 3561UDC     C739167  19.586   1.007  14.708 -0.0846  0.4678 -0.6318
 3561UDC     C839168  19.678   1.117  14.770 -0.2430 -0.3095  0.2956
 3561UDC     C939169  19.599   1.252  14.800  0.2256  0.5577 -0.7651
 3561UDC    C1039170  19.483   1.222  14.897  0.6409  0.8995 -0.4974
 3561UDC    C1139171  19.380   1.328  14.928 -0.3838 -1.0156 -0.2296
 3562UDC     C139172  14.819   2.732  16.076  0.1483  0.2716  0.3567
 3562UDC     C239173  14.905   2.671  16.188 -0.5617 -1.2783 -0.0636
 3562UDC     C339174  14.877   2.520  16.215 -0.1641  0.3416  0.6356
 3562UDC     C439175  14.973   2.443  16.303 -0.1975 -0.6390  0.1670
 3562UDC     C539176  15.111   2.451  16.244  0.2905 -0.4979 -0.3722
 3562UDC     C639177  15.213   2.504  16.340 -0.5139 -0.9687 -1.5112
 3562UDC     C739178  15.221   2.427  16.477  0.6628 -0.2077 -0.1238
 3562UDC     C839179  15.341   2.325  16.502 -0.1181  0.3201 -0.0187
 3562UDC     C939180  15.327   2.219  16.611  0.1772  0.0551 -1.8769
 3562UDC    C1039181  15.332   2.073  16.556  0.8583  0.1585  0.6835
 3562UDC    C1139182  15.462   2.048  16.484 -0.1911  0.0732 -0.6133
 3563UDC     C139183   4.382  15.464  19.573  0.1089  0.0758 -0.4485
 3563UDC     C239184   4.241  15.513  19.524  0.0074 -0.2026  0.3015
 3563UDC     C339185   4.236  15.658  19.482  0.4489 -0.3032 -0.4048
 3563UDC     C439186   4.111  15.693  19.389 -0.6164  1.1519 -0.1253
 3563UDC     C539187   4.098  15.839  19.336 -0.1550  0.5852 -0.0416
 3563UDC     C639188   3.988  15.859  19.233 -1.2090  0.7640  0.2984
 3563UDC     C739189   3.990  15.988  19.164 -0.1246 -0.0731  0.7808
 3563UDC     C839190   4.133  16.019  19.122  0.0251  0.8091 -0.5288
 3563UDC     C939191   4.139  16.130  19.022  0.9100  0.6218 -0.2996
 3563UDC    C1039192   4.142  16.269  19.075  0.4399 -0.1450 -0.4366
 3563UDC    C1139193   4.257  16.287  19.178 -0.3541  1.0828 -0.3399
 3564UDC     C139194  14.248  18.917   3.215 -0.0165 -0.3587  0.3722
 3564UDC     C239195  14.150  19.029   3.216 -0.3151 -0.3416  0.8673
 3564UDC     C339196  14.030  19.006   3.301 -0.6388 -0.4867 -0.7720
 3564UDC     C439197  13.907  19.069   3.237  0.2005  0.1126 -0.2833
 3564UDC     C539198  13.785  19.059   3.343 -0.6225  0.2739 -0.7316
 3564UDC     C639199  13.641  19.090   3.290 -0.5767 -0.6193 -0.5485
 3564UDC     C739200  13.611  19.049   3.151 -0.6860  0.0974  0.0263
 3564UDC     C839201  13.532  18.917   3.169  0.1751  0.6161  0.6254
 3564UDC     C939202  13.396  18.937   3.222 -0.3118 -0.0716  0.4204
 3564UDC    C1039203  13.283  18.942   3.116 -0.0689  0.7018 -0.0325
 3564UDC    C1139204  13.294  18.826   3.017  0.6239 -0.1332 -0.2865
 3565UDC     C139205  17.091   5.198   7.287 -0.7112  1.7115 -0.5208
 3565UDC     C239206  17.150   5.065   7.348 -0.6049  0.6079 -0.2798
 3565UDC     C339207  17.309   5.049   7.346 -0.1819 -1.1610 -0.5726
 3565UDC     C439208  17.398   5.139   7.444  1.0042  0.9155 -0.2696
 3565UDC     C539209  17.549   5.124   7.411 -0.8531  0.2610  0.0105
 3565UDC     C639210  17.634   5.005   7.448 -0.5054 -0.1849 -0.7811
 3565UDC     C739211  17.639   4.902   7.335 -0.6973 -0.1567  0.5383
 3565UDC     C839212  17.735   4.781   7.345  0.3995  1.4059  0.6876
 3565UDC     C939213  17.695   4.689   7.460  0.0256 -0.3169  0.2564
 3565UDC    C1039214  17.795   4.595   7.526  0.0814 -0.3000 -0.4957
 3565UDC    C1139215  17.782   4.444   7.492 -0.8956  0.6148  0.7136
 3566UDC     C139216  11.420  12.819  13.638  0.7082 -0.1642  0.0222
 3566UDC     C239217  11.296  12.899  13.598  1.0578  0.2037 -0.1457
 3566UDC     C339218  11.226  12.968  13.714  0.2761  0.5372 -1.3339
 3566UDC     C439219  11.150  12.870  13.799  0.9842 -0.8584  1.0410
 3566UDC     C539220  11.075  12.787  13.693  0.1528 -0.6813 -0.2711
 3566UDC     C639221  10.941  12.735  13.748  0.7964  0.3111  1.6711
 3566UDC     C739222  10.851  12.844  13.809 -0.3118  0.6990 -0.3169
 3566UDC     C839223  10.713  12.835  13.748  0.0523  0.1629  0.1473
 3566UDC     C939224  10.618  12.713  13.760  0.2679 -0.0992  0.2670
 3566UDC    C1039225  10.483  12.700  13.692 -0.2340  0.8676 -0.3788
 3566UDC    C1139226  10.507  12.685  13.540  0.4957  0.0957 -0.1774
 3567UDC     C139227   9.709  10.740  15.224  0.6841  0.1223  0.7008
 3567UDC     C239228   9.660  10.606  15.156  0.6052 -0.2222 -0.3111
 3567UDC     C339229   9.665  10.620  15.007 -0.7858  0.4893  0.5513
 3567UDC     C439230   9.817  10.614  14.965  0.3522  0.5647 -0.4193
 3567UDC     C539231   9.863  10.470  15.006 -0.1620  0.5899 -0.2296
 3567UDC     C639232  10.000  10.433  14.947 -0.6538 -0.8393 -0.0725
 3567UDC     C739233  10.000  10.371  14.809  0.3565  0.7545  0.5478
 3567UDC     C839234   9.955  10.454  14.691  0.4368  1.9625 -0.4585
 3567UDC     C939235  10.049  10.537  14.611 -0.5492  0.2646  0.4310
 3567UDC    C1039236  10.148  10.436  14.543 -0.8042 -0.9846  0.1239
 3567UDC    C1139237  10.271  10.505  14.482 -0.0964 -0.8294 -0.1299
 3568UDC     C139238  16.705  12.980  11.829 -0.0204  0.5088  0.0907
 3568UDC     C239239  16.743  13.071  11.948 -0.5082 -0.4720  0.2133
 3568UDC     C339240  16.659  13.034  12.074  0.9329  0.3404 -0.2562
 3568UDC     C439241  16.713  13.105  12.200 -0.3122 -1.1253 -0.0241
 3568UDC     C539242  16.680  13.249  12.170  0.9434 -0.5637 -0.4534
 3568UDC     C639243  16.719  13.355  12.268 -0.1901 -1.0896  0.6262
 3568UDC     C739244  16.649  13.377  12.399 -0.0073  0.8448 -0.9392
 3568UDC     C839245  16.744  13.454  12.487 -0.5638  0.3740 -1.3629
 3568UDC     C939246  16.690  13.472  12.630 -0.8544 -0.5086  0.1078
 3568UDC    C1039247  16.771  13.524  12.751  0.4055  1.1008  0.1812
 3568UDC    C1139248  16.690  13.595  12.856 -0.3459  0.0912 -0.3407
 3569UDC     C139249  14.195  14.463  15.107 -0.3950 -1.1836 -0.1555
 3569UDC     C239250  14.163  14.508  14.961  0.6087 -0.5046 -0.0760
 3569UDC     C339251  14.282  14.542  14.872 -0.5429  0.9129  1.5843
 3569UDC     C439252  14.239  14.552  14.726 -0.5341 -0.2688  0.0926
 3569UDC     C539253  14.179  14.441  14.643 -0.2482 -0.2457  0.4450
 3569UDC     C639254  14.289  14.343  14.614  0.5093  0.1367 -1.4064
 3569UDC     C739255  14.267  14.201  14.555 -0.3668 -0.1105 -0.2830
 3569UDC     C839256  14.401  14.135  14.557  0.1140  0.4093  0.2232
 3569UDC     C939257  14.384  13.997  14.492 -0.7911 -0.4841  0.3270
 3569UDC    C1039258  14.516  13.931  14.441  0.2433  0.6731 -0.9998
 3569UDC    C1139259  14.646  14.007  14.498 -0.1451  0.4420 -0.7429
 3570UDC     C139260   4.153   9.201  19.023 -0.6827 -0.1961 -0.3475
 3570UDC     C239261   4.177   9.057  18.987 -0.1534  0.3970 -0.1530
 3570UDC     C339262   4.119   9.013  18.850 -0.3268 -0.9729 -0.2459
 3570UDC     C439263   3.977   9.071  18.839 -0.0112 -0.0078  0.2882
 3570UDC     C539264   3.860   9.005  18.904 -0.3751  0.7958  0.1965
 3570UDC     C639265   3.746   9.104  18.944 -0.1922  0.5213  0.4645
 3570UDC     C739266   3.638   9.147  18.833 -0.6710 -0.8486  0.0521
 3570UDC     C839267   3.684   9.238  18.717 -0.2493  0.7092  0.0772
 3570UDC     C939268   3.705   9.387  18.737  0.3428  0.9754 -0.0463
 3570UDC    C1039269   3.805   9.419  18.848 -0.1370  0.0751  0.7275
 3570UDC    C1139270   3.768   9.560  18.880 -0.0899 -0.9472  0.0883
 3571UDC     C139271  18.357   0.101  16.635  0.7354  0.4556 -0.0589
 3571UDC     C239272  18.380   0.054  16.493  0.4816  0.5932 -0.1626
 3571UDC     C339273  18.291   0.106  16.384 -0.1634 -0.5737  0.7052
 3571UDC     C439274  18.294   0.024  16.250  1.2086  0.0418 -0.4752
 3571UDC     C539275  18.182   0.029  16.152 -0.0111  0.0957 -0.0497
 3571UDC     C639276  18.119   0.171  16.148  0.5846  0.1462 -0.6450
 3571UDC     C739277  17.993   0.171  16.066  0.2118 -0.1681  0.1450
 3571UDC     C839278  17.919   0.286  16.001 -0.6416 -0.6728 -0.0989
 3571UDC     C939279  17.893   0.221  15.855 -0.6739 -0.5610 -0.4073
 3571UDC    C1039280  18.020   0.219  15.757  0.5873  0.0487 -0.8472
 3571UDC    C1139281  18.060   0.365  15.744  0.1368 -0.7872 -0.7821
 3572UDC     C139282  15.883   4.873   7.442  0.4952  0.3421  0.9496
 3572UDC     C239283  16.004   4.955   7.486 -0.0018 -1.0473  0.2477
 3572UDC     C339284  16.104   4.850   7.483  0.5298 -0.0532  0.8147
 3572UDC     C439285  16.128   4.769   7.361  0.4783 -0.4685  0.0194
 3572UDC     C539286  16.212   4.646   7.390 -0.0400  1.3269 -1.3676
 3572UDC     C639287  16.272   4.590   7.260 -0.0801  0.6246 -0.6748
 3572UDC     C739288  16.307   4.446   7.273  0.9799 -0.2617 -0.1658
 3572UDC     C839289  16.371   4.386   7.145 -0.5115  0.3315 -0.7763
 3572UDC     C939290  16.516   4.326   7.159  0.4598  0.1149 -0.8232
 3572UDC    C1039291  16.564   4.246   7.041 -0.1362  0.3509 -0.4244
 3572UDC    C1139292  16.719   4.216   7.046 -0.3051 -0.1822  0.1999
 3573UDC     C139293   1.652  10.257  11.343 -0.9997 -0.9201 -0.5719
 3573UDC     C239294   1.667  10.407  11.298  0.7315  0.3527  0.6527
 3573UDC     C339295   1.547  10.442  11.202 -1.0928  0.1270 -0.3941
 3573UDC     C439296   1.523  10.594  11.179  0.9548  1.5437 -0.3678
 3573UDC     C539297   1.374  10.633  11.147 -0.0653  1.0702 -0.5701
 3573UDC     C639298   1.331  10.595  11.003 -0.9321 -0.0318 -0.2149
 3573UDC     C739299   1.177  10.589  10.979 -0.6565 -0.4829 -0.9832
 3573UDC     C839300   1.141  10.596  10.827 -0.1319  0.3495  0.5553
 3573UDC     C939301   1.033  10.702  10.782  0.4390  0.1772 -0.1496
 3573UDC    C1039302   1.080  10.853  10.775  0.6049  0.0784  0.8687
 3573UDC    C1139303   0.974  10.955  10.729  0.0661  0.5033 -0.7794
 3574UDC     C139304  15.377  16.879   5.276  0.5444  0.9330 -0.5791
 3574UDC     C239305  15.344  16.941   5.141 -0.0187  0.7205 -0.2171
 3574UDC     C339306  15.419  17.071   5.107  0.3726  0.0380 -0.0426
 3574UDC     C439307  15.366  17.182   5.203  0.3898  0.6235  0.1478
 3574UDC     C539308  15.420  17.323   5.157 -0.3538  0.8753  0.2871
 3574UDC     C639309  15.341  17.438   5.210 -0.1670 -0.4778  1.6672
 3574UDC     C739310  15.365  17.446   5.361  0.1741 -0.1689  0.7697
 3574UDC     C839311  15.415  17.585   5.400 -0.9052 -0.1372 -0.4866
 3574UDC     C939312  15.391  17.609   5.551  0.7930 -0.3454 -0.2885
 3574UDC    C1039313  15.487  17.571   5.654 -0.0179  0.5812 -0.0539
 3574UDC    C1139314  15.474  17.615   5.801  0.2375  0.3638  0.1359
 3575UDC     C139315  16.849  11.473  14.836  0.4468 -0.0943 -0.7157
 3575UDC     C239316  16.791  11.556  14.723 -0.0409  0.3359  0.0133
 3575UDC     C339317  16.783  11.702  14.758  0.5468 -0.8827  0.7911
 3575UDC     C439318  16.878  11.737  14.872  0.3023  0.1999 -0.6972
 3575UDC     C539319  16.857  11.889  14.894 -0.0375 -0.3851  0.0209
 3575UDC     C639320  16.940  11.949  15.009  0.2421 -0.6288  0.1115
 3575UDC     C739321  16.906  12.096  15.062  1.2993  1.0522  0.0802
 3575UDC     C839322  16.874  12.093  15.206  0.2784 -0.4086  0.8889
 3575UDC     C939323  16.905  12.225  15.281 -0.2162 -1.5335 -0.3076
 3575UDC    C1039324  16.831  12.257  15.412  0.1716 -0.2395  0.9840
 3575UDC    C1139325  16.805  12.395  15.471 -0.2965 -1.3022  0.9612
 3576UDC     C139326   1.040   2.886   3.049  0.3281 -0.0948 -0.0423
 3576UDC     C239327   1.143   2.886   3.158 -0.3246 -1.0537 -0.1919
 3576UDC     C339328   1.285   2.892   3.105 -1.0679 -0.3433 -0.6856
 3576UDC     C439329   1.390   2.847   3.212  0.4078 -0.9220  0.0104
 3576UDC     C539330   1.524   2.915   3.202 -0.6888 -0.6746  0.4066
 3576UDC     C639331   1.514   3.069   3.224  0.9844  0.6029 -0.4990
 3576UDC     C739332   1.637   3.155   3.187 -1.3218  0.9021  0.8737
 3576UDC     C839333   1.599   3.288   3.116 -0.7448 -1.2420  0.3398
 3576UDC     C939334   1.689   3.310   2.996 -0.4763  1.1886 -0.3067
 3576UDC    C1039335   1.655   3.211   2.882 -0.2089  0.1476  1.2699
 3576UDC    C1139336   1.777   3.203   2.793 -0.4391  0.1121  0.0744
 3577UDC     C139337  17.457  18.139   8.193 -1.7237 -0.0815  0.0813
 3577UDC     C239338  17.472  18.150   8.045  0.5459  0.2875 -0.2791
 3577UDC     C339339  17.406  18.031   7.970 -0.6500  0.6785  0.1145
 3577UDC     C439340  17.267  17.995   8.040 -0.1281 -0.1025 -0.8079
 3577UDC     C539341  17.157  17.980   7.937  0.2136 -0.7538 -0.1536
 3577UDC     C639342  17.034  17.909   8.001 -0.8989 -0.1337 -0.1764
 3577UDC     C739343  17.067  17.779   8.078 -0.0602  0.9842  0.0526
 3577UDC     C839344  16.939  17.751   8.168 -0.4048 -0.0920  0.7917
 3577UDC     C939345  16.868  17.618   8.179 -0.2341  0.0952 -0.0860
 3577UDC    C1039346  16.760  17.610   8.289 -0.5110 -1.1791  0.4093
 3577UDC    C1139347  16.636  17.702   8.271 -0.1365 -0.0075 -0.4419
 3578UDC     C139348  17.213  12.884   8.938  0.0925  0.6125  0.4497
 3578UDC     C239349  17.274  13.029   8.963 -0.8246  0.1920 -0.4230
 3578UDC     C339350  17.322  13.104   8.836  0.2048  0.1831 -0.4506
 3578UDC     C439351  17.359  13.249   8.824 -1.4508 -0.4266 -0.1238
 3578UDC     C539352  17.399  13.292   8.678 -0.1799 -0.5407  0.2968
 3578UDC     C639353  17.542  13.263   8.647 -1.7082 -0.7453 -0.2766
 3578UDC     C739354  17.561  13.313   8.510 -0.4258 -0.6355 -0.1875
 3578UDC     C839355  17.699  13.351   8.471 -0.3399 -0.1772 -0.8185
 3578UDC     C939356  17.812  13.246   8.495  0.3486  0.1910  0.2032
 3578UDC    C1039357  17.931  13.299   8.412  0.5976 -0.4452 -0.2670
 3578UDC    C1139358  17.921  13.319   8.264  0.1035 -0.4836 -1.0056
 3579UDC     C139359   9.794  14.708  10.025 -0.0090 -0.1648  0.9207
 3579UDC     C239360   9.784  14.843  10.101 -0.7482  1.0668 -0.9642
 3579UDC     C339361   9.906  14.937  10.104 -0.9031 -0.8914  0.3973
 3579UDC     C439362   9.916  15.010   9.972 -0.2991 -0.0151 -0.3167
 3579UDC     C539363   9.994  14.932   9.866 -0.0028 -0.5575 -1.1855
 3579UDC     C639364  10.003  15.029   9.747 -0.1758 -0.5887 -0.5884
 3579UDC     C739365  10.099  14.985   9.633 -1.2159  0.8941 -0.9857
 3579UDC     C839366  10.114  15.099   9.530  1.5639  0.2592  0.7275
 3579UDC     C939367  10.231  15.080   9.431 -1.0732  0.3095  0.0995
 3579UDC    C1039368  10.382  15.104   9.448  0.9197 -1.0087 -0.1816
 3579UDC    C1139369  10.445  15.020   9.338  0.0278  1.0549  0.9440
 3580UDC     C139370  15.295  17.512  18.143 -0.8327 -0.0785  0.1282
 3580UDC     C239371  15.319  17.660  18.110  0.2671  0.9100 -0.0908
 3580UDC     C339372  15.466  17.674  18.061 -0.3724  0.5333  0.1304
 3580UDC     C439373  15.500  17.810  17.984  1.0610  0.6185 -0.4833
 3580UDC     C539374  15.637  17.872  18.020 -0.0809 -0.6302  0.4231
 3580UDC     C639375  15.758  17.866  17.916 -0.7440 -0.6516 -0.3861
 3580UDC     C739376  15.796  17.986  17.826  0.0173  1.0726  0.4759
 3580UDC     C839377  15.718  17.969  17.692 -0.3493 -0.7612 -0.8383
 3580UDC     C939378  15.794  18.059  17.585 -0.8759  0.0497  0.0590
 3580UDC    C1039379  15.703  18.068  17.457  0.5336  0.7429  0.3570
 3580UDC    C1139380  15.562  18.118  17.489 -0.0799 -0.9330 -0.1473
 3581UDC     C139381  10.996  12.867  16.469 -0.4654  0.0316  0.1121
 3581UDC     C239382  10.973  13.015  16.482  0.4471 -0.8786  0.7889
 3581UDC     C339383  10.823  13.023  16.525  0.8206 -0.9490  0.3893
 3581UDC     C439384  10.722  12.972  16.421  0.2587  0.2396  0.7400
 3581UDC     C539385  10.582  12.940  16.476 -0.7801 -1.2299  0.1776
 3581UDC     C639386  10.512  13.053  16.557 -0.2418 -0.4594 -0.5115
 3581UDC     C739387  10.401  13.000  16.658  0.2159  0.5076  0.5706
 3581UDC     C839388  10.269  13.059  16.607 -0.1081 -0.4526 -0.4032
 3581UDC     C939389  10.141  13.019  16.678  1.0804 -0.4493 -0.6089
 3581UDC    C1039390   9.999  13.067  16.636  0.7424  0.4535 -0.7577
 3581UDC    C1139391   9.971  13.213  16.669  0.2752  0.0569  0.1071
 3582UDC     C139392  17.258  18.110   0.660  0.5003 -0.6793 -0.2021
 3582UDC     C239393  17.267  18.144   0.814 -0.3055 -0.1602  0.4077
 3582UDC     C339394  17.276  18.286   0.870 -0.4370  0.3702 -0.1323
 3582UDC     C439395  17.312  18.289   1.022  1.2491 -0.6213  0.5632
 3582UDC     C539396  17.336  18.434   1.072 -0.7917  0.1850  0.4257
 3582UDC     C639397  17.360  18.452   1.225  1.0609 -0.2450 -0.2770
 3582UDC     C739398  17.244  18.443   1.328 -1.2261 -0.2189  0.5724
 3582UDC     C839399  17.293  18.456   1.474 -0.7033  0.4090 -1.1474
 3582UDC     C939400  17.339  18.597   1.513 -0.2646 -1.3945  0.6724
 3582UDC    C1039401  17.224  18.689   1.565  0.0927 -0.1635  0.7077
 3582UDC    C1139402  17.281  18.805   1.651  0.4361 -0.9716  0.0021
 3583UDC     C139403  16.797   8.962  15.304  0.2934  0.2765  0.9303
 3583UDC     C239404  16.692   9.053  15.238 -0.6213 -0.6918  0.0640
 3583UDC     C339405  16.564   9.057  15.322 -0.9522 -0.3844 -0.1445
 3583UDC     C439406  16.562   9.092  15.470 -0.8116  0.2342  0.7427
 3583UDC     C539407  16.594   9.240  15.505 -0.9463 -0.4322 -0.2164
 3583UDC     C639408  16.513   9.369  15.490  0.8376 -0.9907  0.3580
 3583UDC     C739409  16.591   9.514  15.488 -0.0207  0.0152 -0.7927
 3583UDC     C839410  16.484   9.629  15.493  0.1200  0.1365  0.8405
 3583UDC     C939411  16.528   9.776  15.477  0.6397 -0.1660  0.7887
 3583UDC    C1039412  16.600   9.826  15.602  0.7136  0.3654  0.3707
 3583UDC    C1139413  16.535   9.930  15.684  0.4605 -0.3468 -0.4197
 3584UDC     C139414  17.391  19.662  17.458 -0.3256 -0.1329 -0.0302
 3584UDC     C239415  17.327  19.725  17.340  0.3321  1.1206  0.3008
 3584UDC     C339416  17.392  19.717  17.198 -0.1858 -0.2811 -0.4725
 3584UDC     C439417  17.545  19.709  17.214  0.2487  0.4535  0.2075
 3584UDC     C539418  17.614  19.737  17.084 -0.7708 -1.7769  0.4428
 3584UDC     C639419  17.767  19.746  17.109 -0.6768 -0.7715  0.7093
 3584UDC     C739420  17.866  19.791  16.991  0.3599  0.1098  0.1463
 3584UDC     C839421  17.890  19.943  17.004  0.4300  0.3299  0.9869
 3584UDC     C939422  17.983  20.005  16.905  0.6930 -0.7290  0.7505
 3584UDC    C1039423  17.948  20.158  16.891 -0.6465 -0.3574  0.1585
 3584UDC    C1139424  18.031  20.226  16.782 -0.3056  0.6453 -1.0716
 3585UDC     C139425  19.999   2.649   6.112  0.8926  0.8149  0.3715
 3585UDC     C239426  20.136   2.669   6.180 -0.6440 -0.4693  0.5309
 3585UDC     C339427  20.239   2.656   6.069 -0.2741 -0.4248  0.0233
 3585UDC     C439428  20.377   2.659   6.128  0.1054  1.1506 -0.7104
 3585UDC     C539429  20.454   2.525   6.136  0.6287  0.6069  0.2801
 3585UDC     C639430  20.470   2.438   6.008 -1.3239 -1.3266 -0.1507
 3585UDC     C739431  20.523   2.295   6.017  0.6056  0.1927  0.2583
 3585UDC     C839432  20.473   2.193   6.121 -0.7401 -0.6146 -0.2857
 3585UDC     C939433  20.520   2.041   6.113  0.5307 -0.1770  0.6814
 3585UDC    C1039434  20.664   2.001   6.123 -0.5141 -0.0215  0.3740
 3585UDC    C1139435  20.694   1.852   6.143 -0.9506  0.7684  0.3183
 3586UDC     C139436  12.320  10.498   7.555  0.2056  0.2278 -0.1503
 3586UDC     C239437  12.249  10.394   7.646 -0.1632  0.1524  0.0833
 3586UDC     C339438  12.344  10.325   7.750 -0.2795  0.4326  0.0444
 3586UDC     C439439  12.473  10.261   7.689  0.6340  0.2573  0.7205
 3586UDC     C539440  12.556  10.203   7.801 -0.1392 -0.0690 -0.3331
 3586UDC     C639441  12.555  10.279   7.932  0.1538 -0.3314 -0.2312
 3586UDC     C739442  12.573  10.195   8.064 -0.0176  0.0017  0.2425
 3586UDC     C839443  12.689  10.236   8.162  0.7288 -0.3778  0.2627
 3586UDC     C939444  12.673  10.151   8.282  0.1103  0.9065 -0.8638
 3586UDC    C1039445  12.758  10.205   8.402  1.1747  0.1662 -0.2473
 3586UDC    C1139446  12.735  10.357   8.405 -0.5162 -0.2307 -0.7921
 3587UDC     C139447   9.246   5.678   5.295 -0.7197  0.7019 -0.2992
 3587UDC     C239448   9.276   5.780   5.189  0.8696  0.0967  0.1780
 3587UDC     C339449   9.337   5.911   5.229 -0.9495 -0.9076 -0.1323
 3587UDC     C439450   9.437   5.894   5.349 -0.0658 -0.1206  0.3643
 3587UDC     C539451   9.578   5.870   5.303  0.2381  0.5166 -0.2097
 3587UDC     C639452   9.666   5.790   5.404 -0.5179 -1.5567  0.3088
 3587UDC     C739453   9.606   5.656   5.439  0.6035  0.4438 -1.2119
 3587UDC     C839454   9.592   5.621   5.592 -0.8267 -0.2130  0.0832
 3587UDC     C939455   9.517   5.489   5.621  0.0769 -0.7962  0.1815
 3587UDC    C1039456   9.499   5.417   5.759  0.5912 -0.0960  0.6461
 3587UDC    C1139457   9.467   5.262   5.751  0.4018 -0.2912 -0.2267
 3588UDC     C139458   7.300  19.979  15.689  0.7302 -0.0193  0.1564
 3588UDC     C239459   7.191  19.904  15.603 -2.1599  0.0756  0.4403
 3588UDC     C339460   7.197  19.898  15.441  0.7415  1.0530 -0.5713
 3588UDC     C439461   7.057  19.904  15.387  0.0406 -0.4294 -1.1320
 3588UDC     C539462   7.047  19.908  15.238 -0.2844 -0.0921  0.3617
 3588UDC     C639463   6.935  19.825  15.168 -0.2779  0.0342  0.3043
 3588UDC     C739464   6.961  19.792  15.024 -0.0741  0.5787  0.2284
 3588UDC     C839465   6.934  19.892  14.907 -0.7402 -0.6109  0.6475
 3588UDC     C939466   6.943  19.829  14.763 -0.3412  0.6142 -0.5774
 3588UDC    C1039467   6.856  19.709  14.735 -0.0452  0.0889  0.9703
 3588UDC    C1139468   6.894  19.624  14.612  0.3364 -0.3182 -0.8351
 3589UDC     C139469  15.823   1.078   1.115  0.5469 -0.0707  0.2726
 3589UDC     C239470  15.964   1.082   1.169  0.2086  0.9202 -0.0723
 3589UDC     C339471  16.051   0.961   1.121  0.3434 -0.0962 -0.3248
 3589UDC     C439472  15.992   0.829   1.117  0.1101 -0.2271 -0.3447
 3589UDC     C539473  16.010   0.748   1.246  0.6997  0.8428  0.5915
 3589UDC     C639474  15.959   0.605   1.245 -0.2266 -0.1730 -0.0929
 3589UDC     C739475  16.018   0.519   1.139 -0.0763 -0.0083  0.6246
 3589UDC     C839476  15.962   0.375   1.137 -1.1869  0.9816 -0.3051
 3589UDC     C939477  15.985   0.307   1.276 -0.2553  0.1410  0.2307
 3589UDC    C1039478  15.842   0.263   1.330  0.3701 -0.4154 -0.1305
 3589UDC    C1139479  15.836   0.163   1.455 -0.6372 -0.3428  0.3287
 3590UDC     C139480  13.924  18.410  16.975  0.9292 -0.1782 -0.1940
 3590UDC     C239481  13.890  18.435  16.828  0.5330  1.4306 -0.0224
 3590UDC     C339482  13.774  18.535  16.804 -0.7830  0.4439  0.2227
 3590UDC     C439483  13.745  18.556  16.655  0.6099  1.3228  0.3654
 3590UDC     C539484  13.871  18.623  16.602  1.0229 -0.2121  0.7043
 3590UDC     C639485  13.874  18.612  16.448  0.7156  0.1458  1.1901
 3590UDC     C739486  14.012  18.661  16.397 -0.0984  0.7282  0.3015
 3590UDC     C839487  14.122  18.555  16.424  0.7400  1.0196 -0.4600
 3590UDC     C939488  14.250  18.593  16.503 -0.9391 -0.4044 -0.8788
 3590UDC    C1039489  14.287  18.471  16.594 -0.3705 -0.2955  0.0601
 3590UDC    C1139490  14.426  18.475  16.655 -0.4900  0.4516 -0.4616
 3591UDC     C139491   9.167  10.666  14.352 -0.4473 -0.6653 -0.6492
 3591UDC     C239492   9.106  10.774  14.253  0.3307  0.3193  0.5672
 3591UDC     C339493   8.958  10.757  14.285 -1.3703 -0.2850 -0.0881
 3591UDC     C439494   8.895  10.846  14.397  0.6554  0.1121  0.1627
 3591UDC     C539495   8.759  10.788  14.444  0.4200  0.5940 -0.8866
 3591UDC     C639496   8.703  10.824  14.586  0.1615  0.6961  0.1531
 3591UDC     C739497   8.742  10.719  14.685 -0.2197  1.2181  0.6504
 3591UDC     C839498   8.885  10.699  14.726 -1.2317 -0.7740 -0.6784
 3591UDC     C939499   8.903  10.603  14.843 -0.1046 -0.2314 -0.8291
 3591UDC    C1039500   8.814  10.631  14.972  0.7571 -0.3429  0.8344
 3591UDC    C1139501   8.780  10.509  15.061 -0.1863  0.0736  0.2551
 3592UDC     C139502   4.187   1.307   9.433 -1.0986 -0.2833  0.3330
 3592UDC     C239503   4.238   1.453   9.455  0.7638  1.0246 -0.6745
 3592UDC     C339504   4.380   1.482   9.490  0.8353 -0.7719  0.6395
 3592UDC     C439505   4.383   1.618   9.562 -0.8307 -0.1452 -0.3961
 3592UDC     C539506   4.258   1.635   9.657 -0.1161 -0.5191  0.6711
 3592UDC     C639507   4.269   1.598   9.809 -0.1549  0.9467  0.3904
 3592UDC     C739508   4.155   1.554   9.898 -0.6345 -0.9328  0.6428
 3592UDC     C839509   4.065   1.668   9.940  0.1719 -0.2298 -0.1867
 3592UDC     C939510   4.117   1.779  10.032 -0.8002 -0.1058 -0.3920
 3592UDC    C1039511   4.005   1.884  10.041 -0.4834 -0.5939  0.0569
 3592UDC    C1139512   3.933   1.934   9.918  0.0645  0.5197 -0.8446
 3593UDC     C139513   9.673  15.278  15.927  0.7564 -0.5401 -0.4868
 3593UDC     C239514   9.593  15.217  15.805  0.5041 -0.0750 -0.2916
 3593UDC     C339515   9.634  15.107  15.706  0.9600 -0.0366  1.8315
 3593UDC     C439516   9.536  15.074  15.598 -0.3785  0.4326  0.6768
 3593UDC     C539517   9.545  15.133  15.454  0.6151 -1.1787 -1.0372
 3593UDC     C639518   9.416  15.203  15.410 -0.5181  0.2751 -0.3770
 3593UDC     C739519   9.284  15.124  15.411 -1.2430  0.0000 -0.9895
 3593UDC     C839520   9.146  15.199  15.393 -0.6483  0.0478  0.2019
 3593UDC     C939521   9.023  15.107  15.417 -0.0618 -0.2532  0.8614
 3593UDC    C1039522   8.905  15.125  15.315  0.0046 -0.2616 -0.5703
 3593UDC    C1139523   8.782  15.031  15.321  0.4912 -0.8610  0.7994
 3594UDC     C139524  16.728   0.523   9.540  0.2135  0.8130  0.3793
 3594UDC     C239525  16.734   0.378   9.505 -0.0637 -0.2738 -0.0964
 3594UDC     C339526  16.735   0.331   9.357  0.6134 -0.7757 -0.3486
 3594UDC     C439527  16.640   0.213   9.329 -0.4514 -0.9948  0.1394
 3594UDC     C539528  16.505   0.247   9.403 -0.8175 -0.2508  1.4679
 3594UDC     C639529  16.412   0.141   9.355  1.2282 -1.1602  0.0472
 3594UDC     C739530  16.455   0.003   9.371 -0.9322  0.9193 -0.2578
 3594UDC     C839531  16.329  -0.102   9.389 -0.0845  0.4979  0.0545
 3594UDC     C939532  16.381  -0.208   9.483 -0.2400 -0.0329 -0.0728
 3594UDC    C1039533  16.311  -0.341   9.508 -0.5715  0.1475 -0.3632
 3594UDC    C1139534  16.216  -0.350   9.626  0.2668 -0.6792 -0.4388
 3595UDC     C139535  13.278  14.428  14.428  0.2425  0.0337  1.0267
 3595UDC     C239536  13.258  14.372  14.280 -0.2351  0.0137  0.2309
 3595UDC     C339537  13.358  14.428  14.183 -1.3080 -0.3188 -0.2797
 3595UDC     C439538  13.356  14.398  14.033 -0.2639 -0.2827  0.8801
 3595UDC     C539539  13.226  14.398  13.948  0.2374 -0.7981  0.8551
 3595UDC     C639540  13.235  14.352  13.800  0.7570 -0.2038  0.1629
 3595UDC     C739541  13.241  14.199  13.782  0.0895  0.1647  0.6477
 3595UDC     C839542  13.238  14.129  13.641  0.5571  0.0482  0.4475
 3595UDC     C939543  13.360  14.149  13.558 -0.2265  0.1353  0.0609
 3595UDC    C1039544  13.366  14.085  13.416  0.0665 -0.0037 -0.9150
 3595UDC    C1139545  13.434  13.945  13.402 -0.0088  0.2577  0.1883
 3596UDC     C139546  18.360  12.589  10.876  0.6937 -0.0139 -1.2914
 3596UDC     C239547  18.316  12.462  10.957 -0.5819 -0.3412 -0.4039
 3596UDC     C339548  18.253  12.464  11.092 -0.7548 -1.0928 -0.1180
 3596UDC     C439549  18.347  12.461  11.210  0.0144  0.8254 -0.7102
 3596UDC     C539550  18.288  12.462  11.349 -0.2148 -0.1328 -0.4616
 3596UDC     C639551  18.184  12.563  11.402  0.2418 -0.2018  0.3221
 3596UDC     C739552  18.102  12.514  11.520 -0.0286  0.7812 -0.3214
 3596UDC     C839553  17.962  12.582  11.525 -0.0730  0.7697 -0.4553
 3596UDC     C939554  17.953  12.707  11.446 -0.7445 -0.1251  0.5458
 3596UDC    C1039555  17.826  12.791  11.474 -0.0817 -0.9939  0.8453
 3596UDC    C1139556  17.756  12.850  11.347 -0.5108 -0.8501 -0.1680
 3597UDC     C139557   1.557   1.537   0.863 -0.2316 -0.4450  1.0927
 3597UDC     C239558   1.480   1.644   0.784 -0.6548  0.9728  0.1499
 3597UDC     C339559   1.409   1.742   0.870  0.5443 -0.7166  0.2396
 3597UDC     C439560   1.299   1.801   0.777 -0.1760  0.9844 -0.6037
 3597UDC     C539561   1.245   1.944   0.818 -0.2598 -0.8698  0.6345
 3597UDC     C639562   1.360   2.040   0.830  0.1594  0.7195  0.1136
 3597UDC     C739563   1.416   2.113   0.708  0.8332 -0.5169 -0.1132
 3597UDC     C839564   1.325   2.091   0.585 -0.8725 -1.3489  0.4982
 3597UDC     C939565   1.391   2.153   0.459 -1.5486  0.0619  0.0540
 3597UDC    C1039566   1.487   2.046   0.406 -0.5897  0.3843  0.1653
 3597UDC    C1139567   1.580   2.126   0.311  0.3310 -0.2040  0.7988
 3598UDC     C139568   1.568   0.870   3.058  0.5550 -0.0647 -0.6964
 3598UDC     C239569   1.561   0.922   3.205  0.5919 -0.1716  0.9034
 3598UDC     C339570   1.682   0.981   3.263 -0.0183 -0.4372  0.0851
 3598UDC     C439571   1.739   1.109   3.188  0.3346  0.8359 -0.6432
 3598UDC     C539572   1.888   1.109   3.140  0.6813  0.3805 -0.8828
 3598UDC     C639573   1.916   1.210   3.026  0.3081 -0.3027 -1.0045
 3598UDC     C739574   1.924   1.150   2.888 -0.0084  0.7264  0.6839
 3598UDC     C839575   2.019   1.200   2.776 -0.3332  0.4099 -0.2375
 3598UDC     C939576   2.125   1.100   2.719 -0.1215 -0.2060 -0.3942
 3598UDC    C1039577   2.096   1.053   2.579  0.2343  0.0243  0.1576
 3598UDC    C1139578   2.074   1.160   2.474 -0.4822  0.0791 -0.4443
 3599UDC     C139579  14.938  16.165  13.640  0.2354  0.0757 -0.6683
 3599UDC     C239580  14.938  16.030  13.716 -0.5918 -0.4420 -0.3142
 3599UDC     C339581  14.895  15.896  13.659 -0.5410  0.6987 -0.4677
 3599UDC     C439582  14.940  15.761  13.730  0.8792 -0.2880 -0.2216
 3599UDC     C539583  15.088  15.761  13.774  0.0072  0.2222 -0.1281
 3599UDC     C639584  15.139  15.645  13.859 -0.3857  0.5080  0.1154
 3599UDC     C739585  15.292  15.622  13.879  0.7861 -0.1956 -0.9416
 3599UDC     C839586  15.371  15.598  13.746  0.1628  0.4343 -0.2617
 3599UDC     C939587  15.494  15.691  13.750 -0.0618  0.3000  0.4804
 3599UDC    C1039588  15.564  15.696  13.615  0.9821 -0.7359 -0.0295
 3599UDC    C1139589  15.715  15.736  13.630  0.6188 -1.2189  0.2997
 3600UDC     C139590   3.067   3.377  19.929  1.1482 -0.2070  0.1014
 3600UDC     C239591   2.945   3.332  20.023 -0.3522  0.1104 -0.2961
 3600UDC     C339592   2.825   3.262  19.944 -1.6277 -0.6635 -0.4487
 3600UDC     C439593   2.698   3.264  20.025 -1.0317  0.7270  0.4888
 3600UDC     C539594   2.580   3.203  19.961  0.8064 -0.7333  0.1145
 3600UDC     C639595   2.554   3.276  19.829 -0.5876  0.1657 -0.5485
 3600UDC     C739596   2.488   3.177  19.731 -0.5827 -0.2934  0.3593
 3600UDC     C839597   2.498   3.189  19.581 -0.7213  0.0798  1.3387
 3600UDC     C939598   2.638   3.217  19.517 -0.3564  0.0647  0.5741
 3600UDC    C1039599   2.650   3.292  19.386  0.2852  0.0376  0.2783
 3600UDC    C1139600   2.798   3.329  19.359  0.0019  0.4154 -0.8468
 3601UDC     C139601   0.336  17.419  11.636  0.5924  0.4806  0.2872
 3601UDC     C239602   0.427  17.350  11.740  0.4005 -0.3801 -0.2486
 3601UDC     C339603   0.568  17.323  11.677 -0.1451 -0.3375 -0.3801
 3601UDC     C439604   0.672  17.244  11.758 -0.0090 -0.2001 -0.5643
 3601UDC     C539605   0.821  17.252  11.710 -0.8869 -0.9565  0.0601
 3601UDC     C639606   0.919  17.165  11.790  1.1472 -0.2178  0.3994
 3601UDC     C739607   1.062  17.168  11.728 -0.4505 -0.1755 -0.1414
 3601UDC     C839608   1.168  17.119  11.832  0.9029  0.6560 -0.1958
 3601UDC     C939609   1.256  17.228  11.879  0.4764 -1.0696 -1.1637
 3601UDC    C1039610   1.388  17.246  11.812 -0.2751  0.1654  1.0552
 3601UDC    C1139611   1.451  17.385  11.842 -0.0968 -0.8080  1.2182
 3602UDC     C139612  18.141   4.021   4.028 -0.2888  0.0686 -0.1191
 3602UDC     C239613  18.219   3.945   3.921 -0.1546 -0.2216 -0.4492
 3602UDC     C339614  18.134   3.980   3.798 -0.2091 -0.6983  1.0518
 3602UDC     C439615  18.177   3.881   3.690 -0.7357 -1.3472  0.3446
 3602UDC     C539616  18.154   3.733   3.702 -0.3144  0.5043 -0.3279
 3602UDC     C639617  18.095   3.669   3.578  1.0038 -0.2235 -0.3727
 3602UDC     C739618  18.048   3.545   3.652  0.8482 -0.1681  0.5993
 3602UDC     C839619  17.921   3.571   3.732 -0.4048  1.0873 -0.1685
 3602UDC     C939620  17.900   3.468   3.850 -0.8023 -0.2190  0.6415
 3602UDC    C1039621  17.750   3.448   3.885 -0.2687  0.2072  0.6304
 3602UDC    C1139622  17.702   3.313   3.837  0.2721 -0.7715  0.1032
 3603UDC     C139623   6.182  13.130   3.424 -0.0977  0.2523  0.0455
 3603UDC     C239624   6.267  13.129   3.297 -1.0163 -0.0001 -1.0929
 3603UDC     C339625   6.394  13.214   3.294 -0.7285  0.2965 -0.7988
 3603UDC     C439626   6.507  13.166   3.194  0.5321 -0.9122 -0.1067
 3603UDC     C539627   6.630  13.265   3.170  0.3705  0.2943  0.5632
 3603UDC     C639628   6.706  13.225   3.038 -0.3983  0.6944 -0.7411
 3603UDC     C739629   6.784  13.349   2.984  0.8617  0.3998 -0.1845
 3603UDC     C839630   6.677  13.415   2.901 -0.4756 -0.6957  0.6085
 3603UDC     C939631   6.701  13.560   2.874 -0.7713 -0.7889 -0.2670
 3603UDC    C1039632   6.819  13.612   2.792  0.9158  0.0537  0.3932
 3603UDC    C1139633   6.833  13.523   2.666  0.2378 -0.0742  0.3184
 3604UDC     C139634  18.045   4.835  16.058  0.0689 -0.0659 -1.0652
 3604UDC     C239635  17.902   4.812  16.025  0.5850  1.1283  1.0514
 3604UDC     C339636  17.845   4.690  16.095  0.6489 -0.4289  0.2248
 3604UDC     C439637  17.724   4.627  16.023  0.8435 -0.2451 -0.7359
 3604UDC     C539638  17.670   4.501  16.093 -0.3384 -0.9030 -0.2213
 3604UDC     C639639  17.570   4.430  16.000  1.3572  0.1089  0.1201
 3604UDC     C739640  17.623   4.337  15.894 -0.2351 -0.3110  0.3076
 3604UDC     C839641  17.519   4.252  15.817 -0.0543  0.0558  0.4528
 3604UDC     C939642  17.406   4.214  15.917 -0.2890 -0.4397 -0.7437
 3604UDC    C1039643  17.273   4.154  15.867 -0.6425 -0.5922  0.3224
 3604UDC    C1139644  17.205   4.248  15.767 -0.1652 -0.0695 -0.0012
 3605UDC     C139645  10.132  14.609   9.572 -0.9495  1.0542 -0.3728
 3605UDC     C239646  10.050  14.490   9.615 -0.9486 -0.1375  0.2042
 3605UDC     C339647   9.899  14.510   9.565  0.5930 -0.2782 -0.0774
 3605UDC     C439648   9.848  14.373   9.515  0.1762 -1.0865 -1.0681
 3605UDC     C539649   9.861  14.262   9.617  0.9407  0.1732  0.0939
 3605UDC     C639650   9.816  14.122   9.548 -0.9130 -0.1162  0.3191
 3605UDC     C739651   9.780  14.013   9.641 -0.0748 -0.3148 -0.2413
 3605UDC     C839652   9.884  13.944   9.727  1.0003  0.5176  0.6104
 3605UDC     C939653   9.812  13.830   9.809 -0.3042  0.6957 -0.2925
 3605UDC    C1039654   9.916  13.730   9.860 -0.4814 -0.1023 -0.1165
 3605UDC    C1139655   9.857  13.594   9.889 -0.3982 -0.0851  0.4324
 3606UDC     C139656  10.290  16.635  16.324  0.5982  0.1266 -0.4170
 3606UDC     C239657  10.226  16.678  16.193  0.3309 -0.3999 -0.5840
 3606UDC     C339658  10.095  16.607  16.172  1.2325  1.2125  0.1175
 3606UDC     C439659   9.980  16.679  16.096 -1.0109  0.1192  0.4183
 3606UDC     C539660   9.913  16.800  16.169  0.2687  0.5515 -0.4337
 3606UDC     C639661   9.777  16.828  16.108 -0.7005  1.0157  0.3458
 3606UDC     C739662   9.728  16.975  16.126 -0.4083  0.3083 -0.1579
 3606UDC     C839663   9.628  17.016  16.231  0.4966  0.6160 -0.2208
 3606UDC     C939664   9.561  17.148  16.213 -0.0723 -0.4957 -0.0160
 3606UDC    C1039665   9.439  17.122  16.305 -0.8623 -0.2716  0.0802
 3606UDC    C1139666   9.437  17.176  16.449 -0.0285  0.1530 -0.1218
 3607UDC     C139667   6.219  10.329  15.332 -0.4020 -0.9626 -0.1902
 3607UDC     C239668   6.274  10.310  15.191 -0.7490  0.6337 -0.0712
 3607UDC     C339669   6.419  10.258  15.163  0.3423  0.2661  0.6120
 3607UDC     C439670   6.459  10.271  15.015  0.7572 -0.8232 -1.3509
 3607UDC     C539671   6.375  10.195  14.911  0.5333 -0.1171 -0.4457
 3607UDC     C639672   6.386  10.250  14.765 -0.5867 -0.7586  0.4099
 3607UDC     C739673   6.325  10.175  14.644  1.4030  0.6208  0.6220
 3607UDC     C839674   6.308  10.273  14.527 -0.3025 -0.4387 -0.1053
 3607UDC     C939675   6.447  10.337  14.500 -0.4256 -0.7100  1.0513
 3607UDC    C1039676   6.428  10.462  14.413  0.2529  0.6809  0.4147
 3607UDC    C1139677   6.370  10.577  14.496 -0.8218 -0.2004  0.2106
 3608UDC     C139678  14.287   8.274  17.558  0.6080 -0.4061  0.3806
 3608UDC     C239679  14.328   8.396  17.639  0.2185 -0.5161 -0.4745
 3608UDC     C339680  14.397   8.508  17.555 -0.8985 -0.1237  0.4232
 3608UDC     C439681  14.293   8.561  17.450 -0.4190  0.5199  0.4330
 3608UDC     C539682  14.347   8.637  17.332 -0.6055  0.3816  1.1786
 3608UDC     C639683  14.399   8.778  17.367 -0.1386 -0.4259  0.6110
 3608UDC     C739684  14.532   8.801  17.293 -0.9495  1.2092 -0.1337
 3608UDC     C839685  14.637   8.812  17.400 -0.3323  0.8772  0.7072
 3608UDC     C939686  14.777   8.828  17.338 -0.4508  0.0279  0.2007
 3608UDC    C1039687  14.894   8.788  17.436 -0.7348  0.1763 -0.0867
 3608UDC    C1139688  14.869   8.678  17.541  0.1476 -0.3017 -0.5957
 3609UDC     C139689   2.672   7.181  18.261  0.6372 -0.5901  0.8554
 3609UDC     C239690   2.647   7.059  18.349  0.9159 -0.1527 -0.3144
 3609UDC     C339691   2.711   7.073  18.488  0.0630 -0.8875  0.9129
 3609UDC     C439692   2.729   6.941  18.555  0.5755  0.2654 -0.0007
 3609UDC     C539693   2.827   6.941  18.667 -0.9263 -0.3337 -0.1634
 3609UDC     C639694   2.972   6.989  18.660 -0.4393  0.6991 -0.3298
 3609UDC     C739695   3.054   7.000  18.794  0.4051 -0.5951  1.2354
 3609UDC     C839696   3.199   7.002  18.770 -0.7881 -0.3090  0.9991
 3609UDC     C939697   3.274   7.072  18.878  0.2965 -0.1762 -0.2647
 3609UDC    C1039698   3.273   7.226  18.862 -0.3101 -0.6419 -0.7274
 3609UDC    C1139699   3.397   7.286  18.931  0.8449  1.7248 -0.1076
 3610UDC     C139700  13.625   8.447   4.428  0.6304 -0.7309  0.4593
 3610UDC     C239701  13.576   8.574   4.353  0.4071  1.5848 -0.0676
 3610UDC     C339702  13.620   8.612   4.204  0.2334  0.3076  0.7144
 3610UDC     C439703  13.509   8.572   4.110  0.4242 -0.1509  0.3064
 3610UDC     C539704  13.399   8.681   4.111  0.2255 -0.2395  0.2171
 3610UDC     C639705  13.287   8.635   4.017  0.6145 -0.0631  0.4866
 3610UDC     C739706  13.169   8.727   4.030  0.9069 -0.8399  0.1286
 3610UDC     C839707  13.044   8.661   4.072  0.7737 -0.1081  0.5535
 3610UDC     C939708  12.942   8.612   3.967  0.1533  0.2179  0.6894
 3610UDC    C1039709  12.894   8.710   3.854  0.2058  0.0056 -0.5178
 3610UDC    C1139710  12.821   8.654   3.728 -0.2940 -0.8179 -0.2223
 3611UDC     C139711  12.071   6.048  19.642  1.2014  0.4909 -1.0925
 3611UDC     C239712  12.136   5.927  19.566  0.4173  0.0082 -0.5283
 3611UDC     C339713  12.248   5.860  19.652 -0.1822  0.1598  0.0940
 3611UDC     C439714  12.384   5.937  19.630 -0.5212 -1.1912  0.7736
 3611UDC     C539715  12.446   5.862  19.509  0.1304  0.5800 -0.2983
 3611UDC     C639716  12.525   5.931  19.399 -0.4122  0.3935 -1.3273
 3611UDC     C739717  12.669   5.961  19.442 -0.2798  0.1628 -0.7431
 3611UDC     C839718  12.759   5.835  19.461 -0.4940  0.2162  0.3621
 3611UDC     C939719  12.805   5.786  19.323  0.5101 -0.0145  0.2123
 3611UDC    C1039720  12.862   5.646  19.353  1.5917 -0.1827 -0.0887
 3611UDC    C1139721  12.767   5.546  19.431 -1.5976  1.0558  0.8753
 3612UDC     C139722   9.815   5.057  13.125 -0.4673  0.1472 -0.6831
 3612UDC     C239723   9.671   5.066  13.065  0.2776  0.3868  0.6204
 3612UDC     C339724   9.588   5.201  13.072 -0.1359  0.6020 -0.3291
 3612UDC     C439725   9.660   5.325  13.022  0.0678 -0.5053 -0.8346
 3612UDC     C539726   9.559   5.441  13.012  0.0402  0.8402 -0.0926
 3612UDC     C639727   9.645   5.561  12.969 -1.0332 -0.0756  0.2957
 3612UDC     C739728   9.562   5.690  12.972 -0.5255 -0.3372 -0.4051
 3612UDC     C839729   9.643   5.827  12.944  0.2768  0.5338  0.2354
 3612UDC     C939730   9.754   5.849  13.049  0.6648 -1.1246  0.1346
 3612UDC    C1039731   9.773   5.994  13.113 -0.8621  0.2111  0.5864
 3612UDC    C1139732   9.900   5.988  13.205 -0.5338 -0.6712  0.6011
 3613UDC     C139733   5.110   7.349  12.596 -1.2139  0.4020 -0.2064
 3613UDC     C239734   5.233   7.455  12.604 -0.5088 -0.7276 -0.2743
 3613UDC     C339735   5.274   7.480  12.751 -0.0051 -0.2837 -0.4129
 3613UDC     C439736   5.407   7.546  12.778  1.2358 -1.0830  0.1263
 3613UDC     C539737   5.410   7.643  12.896  0.8257 -0.8682  0.0876
 3613UDC     C639738   5.538   7.684  12.969  0.0652  0.1221  0.3638
 3613UDC     C739739   5.497   7.781  13.078 -0.5543 -0.7424  0.3067
 3613UDC     C839740   5.604   7.784  13.190 -0.3407 -0.1408  0.5447
 3613UDC     C939741   5.606   7.904  13.284 -0.6679 -0.7554  0.6079
 3613UDC    C1039742   5.743   7.902  13.354  0.4140 -0.7540  0.0038
 3613UDC    C1139743   5.760   8.028  13.441 -1.0828  0.2950  0.3624
 3614UDC     C139744  16.059   1.749  19.391 -0.3464  0.6761 -0.0897
 3614UDC     C239745  16.057   1.895  19.343 -0.3191 -0.3162 -0.0510
 3614UDC     C339746  16.006   2.004  19.439  0.1679  0.6706 -0.2083
 3614UDC     C439747  15.966   2.130  19.362  0.6873 -0.5404  0.6060
 3614UDC     C539748  15.962   2.255  19.458  0.0082  0.4288  0.9844
 3614UDC     C639749  15.945   2.377  19.367  0.3080 -0.5248 -0.7745
 3614UDC     C739750  15.817   2.461  19.399 -0.4307 -0.2150 -0.7399
 3614UDC     C839751  15.698   2.448  19.308 -0.0264  0.3591  1.3247
 3614UDC     C939752  15.578   2.345  19.340  0.7656  0.6477  0.0691
 3614UDC    C1039753  15.481   2.335  19.224 -0.4427  0.0346 -0.7162
 3614UDC    C1139754  15.349   2.269  19.241  0.1071 -0.4732  0.1240
 3615UDC     C139755   8.510   0.638  15.171 -0.0069  0.7270 -0.3533
 3615UDC     C239756   8.555   0.495  15.199 -1.6701  0.2593 -0.3266
 3615UDC     C339757   8.704   0.461  15.212  0.9834 -0.0610  0.1700
 3615UDC     C439758   8.730   0.312  15.177  0.2128 -0.0744 -0.1211
 3615UDC     C539759   8.885   0.296  15.188  0.2236 -1.1767  0.5159
 3615UDC     C639760   8.942   0.243  15.061 -0.5643 -0.3616  0.4124
 3615UDC     C739761   9.085   0.204  15.077 -0.1815  0.1270  1.2052
 3615UDC     C839762   9.140   0.132  14.957 -0.1239 -0.8140 -0.1216
 3615UDC     C939763   9.289   0.112  14.958 -0.7969 -0.0566  0.0299
 3615UDC    C1039764   9.328   0.049  14.824  0.5044 -0.3732  0.5416
 3615UDC    C1139765   9.225  -0.058  14.780 -0.0548 -0.2419 -0.6803
 3616UDC     C139766  19.194  10.164   3.878 -0.2071 -0.8009 -1.1116
 3616UDC     C239767  19.320  10.143   3.792  0.5313 -0.4178  1.8625
 3616UDC     C339768  19.323  10.009   3.721  0.4309 -1.4003 -0.6000
 3616UDC     C439769  19.218   9.994   3.601 -0.1799  0.3275 -0.1682
 3616UDC     C539770  19.234   9.875   3.508 -0.1023  0.0439  0.3315
 3616UDC     C639771  19.122   9.842   3.412  0.5875 -0.2901 -0.7777
 3616UDC     C739772  19.109   9.979   3.342  0.8046  0.6224 -0.3674
 3616UDC     C839773  18.994  10.009   3.254 -0.3166  0.5494 -0.3495
 3616UDC     C939774  19.035  10.137   3.185  0.7520 -0.4792  0.9259
 3616UDC    C1039775  19.003  10.275   3.248 -0.2274  0.6439  0.5154
 3616UDC    C1139776  19.074  10.406   3.206 -0.1225  0.3535 -0.4269
 3617UDC     C139777  17.794   6.416   6.382  0.9963 -0.1633  0.6098
 3617UDC     C239778  17.841   6.385   6.527 -0.4455  0.4012  0.5320
 3617UDC     C339779  17.870   6.503   6.615 -1.1599 -0.7179  0.7829
 3617UDC     C439780  18.000   6.470   6.686 -0.2056  0.6769 -0.7152
 3617UDC     C539781  18.011   6.338   6.745  0.0428  0.1999 -1.2452
 3617UDC     C639782  18.076   6.338   6.879 -0.0612 -0.3737 -0.9790
 3617UDC     C739783  18.077   6.214   6.966 -1.4325  0.1384 -1.0633
 3617UDC     C839784  18.141   6.229   7.098 -0.7060  0.3524 -0.9123
 3617UDC     C939785  18.059   6.297   7.210  0.5710  0.2749 -0.1050
 3617UDC    C1039786  17.988   6.180   7.279  0.5059  0.3251 -0.2444
 3617UDC    C1139787  17.870   6.206   7.376  0.2216  0.5942  0.1945
 3618UDC     C139788   4.817  14.759  13.587  0.2688  1.0910 -0.4718
 3618UDC     C239789   4.910  14.866  13.634  0.0728 -0.2559 -1.0597
 3618UDC     C339790   5.021  14.908  13.526  0.2961  0.8940  1.7585
 3618UDC     C439791   4.954  15.009  13.427  0.2404 -0.1335 -0.3997
 3618UDC     C539792   5.002  15.036  13.283  0.2159  1.1654 -0.5682
 3618UDC     C639793   4.917  15.141  13.213 -0.5417 -0.2359  0.3602
 3618UDC     C739794   4.947  15.157  13.067 -0.4024  0.1430  0.7138
 3618UDC     C839795   5.013  15.020  13.027  0.3737 -0.4497 -0.3169
 3618UDC     C939796   5.039  14.991  12.883  0.2747  0.6510  0.0175
 3618UDC    C1039797   4.891  14.968  12.826  0.0714 -0.1256  1.1729
 3618UDC    C1139798   4.808  14.858  12.885  0.1591  0.1460 -0.7883
 3619UDC     C139799   4.175  14.196  16.426 -0.1400 -0.3927  0.2030
 3619UDC     C239800   4.165  14.224  16.581 -0.8768 -0.6413 -0.7043
 3619UDC     C339801   4.083  14.112  16.630  0.4339 -0.4529  0.8509
 3619UDC     C439802   4.146  13.983  16.586 -0.3482  1.2466  0.1289
 3619UDC     C539803   4.069  13.858  16.641  0.0138 -0.2999 -0.8158
 3619UDC     C639804   4.090  13.829  16.795  0.1410 -0.7843 -0.4111
 3619UDC     C739805   3.969  13.889  16.873 -0.1464  0.2238  0.1663
 3619UDC     C839806   4.014  13.892  17.025 -0.6459  0.1442  0.2612
 3619UDC     C939807   4.063  13.756  17.076  0.4500 -0.4873 -0.2492
 3619UDC    C1039808   4.204  13.765  17.120 -0.0302 -0.3388 -0.0851
 3619UDC    C1139809   4.260  13.905  17.160  0.3439 -0.0548  0.6669
 3620UDC     C139810   6.267  16.536  18.604  0.3450 -0.6371  1.0012
 3620UDC     C239811   6.391  16.535  18.510  0.3606 -0.6610  0.3804
 3620UDC     C339812   6.402  16.383  18.479  0.5365 -1.1348 -0.2298
 3620UDC     C439813   6.479  16.336  18.357  0.4679 -0.0574 -0.1655
 3620UDC     C539814   6.465  16.182  18.343  0.2091 -0.4679  0.0109
 3620UDC     C639815   6.559  16.135  18.236  0.6184 -0.1754 -1.0589
 3620UDC     C739816   6.606  15.992  18.256 -1.4542  0.6244 -0.8254
 3620UDC     C839817   6.498  15.880  18.256  0.0675 -0.5510 -0.2731
 3620UDC     C939818   6.550  15.740  18.211 -2.0043  0.2160  0.0032
 3620UDC    C1039819   6.455  15.623  18.231  0.3548 -0.0124  1.3001
 3620UDC    C1139820   6.450  15.512  18.132  0.5933 -0.1897 -0.2550
 3621UDC     C139821  18.102  19.516   4.607 -0.6108  0.5080 -0.7379
 3621UDC     C239822  18.028  19.574   4.729 -0.1027  0.7209  0.3644
 3621UDC     C339823  17.895  19.521   4.765  0.3613  0.5448 -0.2562
 3621UDC     C439824  17.835  19.583   4.892  0.4197 -0.7074  0.2223
 3621UDC     C539825  17.775  19.712   4.857 -0.1940 -0.4547  0.2300
 3621UDC     C639826  17.704  19.779   4.981  0.2260  0.3356  0.3670
 3621UDC     C739827  17.664  19.652   5.056  0.6532  0.5171 -0.0618
 3621UDC     C839828  17.538  19.668   5.148  0.3115 -0.4941  0.1878
 3621UDC     C939829  17.451  19.541   5.158  0.0551  0.5049 -0.2921
 3621UDC    C1039830  17.408  19.483   5.028 -0.6985 -0.8684  0.4821
 3621UDC    C1139831  17.306  19.367   5.027  0.7191 -0.3904  0.2762
 3622UDC     C139832  12.119  19.960  10.150 -0.2658 -0.3285 -1.2213
 3622UDC     C239833  12.178  20.069  10.243 -0.2832  0.4002 -0.2034
 3622UDC     C339834  12.068  20.168  10.287  1.1242 -0.1351  0.5694
 3622UDC     C439835  12.115  20.301  10.349  0.1454  0.6669  0.4435
 3622UDC     C539836  12.191  20.394  10.253  0.9515  0.5043 -0.0555
 3622UDC     C639837  12.111  20.455  10.138 -0.1438  2.0547  1.0307
 3622UDC     C739838  12.192  20.557  10.048  1.2853  1.1968  0.1742
 3622UDC     C839839  12.269  20.657  10.143  0.6101  0.6110  1.3327
 3622UDC     C939840  12.334  20.763  10.048  0.6369  0.4908  1.5741
 3622UDC    C1039841  12.448  20.840  10.108 -0.5566  0.2866  0.2414
 3622UDC    C1139842  12.534  20.932  10.013 -1.0909 -0.1780 -0.3758
 3623UDC     C139843  11.443   8.404   9.570 -0.3946  0.7896 -0.5660
 3623UDC     C239844  11.570   8.347   9.500 -0.1222 -0.4911  1.0879
 3623UDC     C339845  11.623   8.408   9.370  0.5621 -1.5443  0.5419
 3623UDC     C439846  11.748   8.341   9.325  0.7101  0.7133 -0.3656
 3623UDC     C539847  11.821   8.390   9.195 -0.4830 -0.3440 -0.3207
 3623UDC     C639848  11.908   8.516   9.197 -0.4507 -0.4742 -0.7854
 3623UDC     C739849  11.951   8.564   9.061  0.6394  0.2531  0.3158
 3623UDC     C839850  11.824   8.578   8.975 -0.0803  0.1147 -1.1121
 3623UDC     C939851  11.849   8.614   8.833 -0.7344  0.3664  1.0475
 3623UDC    C1039852  11.733   8.674   8.751  0.6573  0.1822  0.5476
 3623UDC    C1139853  11.619   8.568   8.724 -0.2915 -0.3695  0.4196
 3624UDC     C139854  14.977   5.535  19.671  0.1339 -0.0034 -0.1999
 3624UDC     C239855  15.056   5.446  19.769 -0.5879 -0.3746 -0.1070
 3624UDC     C339856  15.204   5.454  19.727 -0.3907 -0.5885 -0.5003
 3624UDC     C439857  15.283   5.349  19.817 -1.0082 -1.9836  0.0224
 3624UDC     C539858  15.430   5.331  19.775 -0.1910 -0.1078 -0.4872
 3624UDC     C639859  15.491   5.204  19.848  0.2592 -0.3057  1.6277
 3624UDC     C739860  15.404   5.078  19.826  1.1982 -0.0429  0.9175
 3624UDC     C839861  15.465   4.954  19.889  0.0577 -0.2323 -0.0124
 3624UDC     C939862  15.509   4.965  20.035 -0.1923  0.0053  0.0391
 3624UDC    C1039863  15.532   4.835  20.113  0.6715  0.9185 -0.2863
 3624UDC    C1139864  15.672   4.782  20.096 -0.5768  1.4134 -0.5639
 3625UDC     C139865  11.645  15.434  15.491 -0.2457 -0.0422  0.1076
 3625UDC     C239866  11.630  15.403  15.645 -0.1287  0.2512  0.1747
 3625UDC     C339867  11.477  15.430  15.676 -0.7915 -0.1194  0.7814
 3625UDC     C439868  11.437  15.401  15.822  0.3359  0.6218  1.2924
 3625UDC     C539869  11.492  15.254  15.859  1.0898  0.4764 -0.8068
 3625UDC     C639870  11.514  15.226  16.015  0.3323 -0.8804 -0.0531
 3625UDC     C739871  11.603  15.107  16.062  0.1146 -0.1116  0.1096
 3625UDC     C839872  11.518  14.978  16.076 -0.1394  0.2185 -0.4922
 3625UDC     C939873  11.462  14.988  16.231  0.1763  0.3576 -0.2965
 3625UDC    C1039874  11.514  14.894  16.343 -0.5212  0.7270  0.8321
 3625UDC    C1139875  11.461  14.908  16.480  1.1135 -0.6609 -0.6620
 3626UDC     C139876  17.738   1.196   8.592  0.6451 -0.0897 -0.6519
 3626UDC     C239877  17.851   1.090   8.579  0.5150  0.1750 -0.5295
 3626UDC     C339878  17.984   1.136   8.646 -0.6056  0.0597  0.7020
 3626UDC     C439879  17.969   1.161   8.794 -0.5726 -0.5040  1.0502
 3626UDC     C539880  18.096   1.188   8.876 -1.1464  0.7078 -0.1889
 3626UDC     C639881  18.105   1.333   8.922  0.7325 -1.3595 -0.9227
 3626UDC     C739882  18.172   1.433   8.825 -0.7292  0.3849 -0.1642
 3626UDC     C839883  18.128   1.451   8.684  0.3004 -0.9271 -0.9147
 3626UDC     C939884  18.212   1.558   8.614 -0.2578  0.8714 -0.1536
 3626UDC    C1039885  18.155   1.702   8.641 -0.0010  0.3520  0.8833
 3626UDC    C1139886  18.229   1.805   8.540  0.6355  1.4601 -0.1275
 3627UDC     C139887  17.382  15.319  11.849  0.0069 -0.0176  0.0983
 3627UDC     C239888  17.390  15.316  12.000 -0.7773  0.5406  1.3977
 3627UDC     C339889  17.239  15.281  12.039 -0.5591  0.1905 -1.5645
 3627UDC     C439890  17.190  15.304  12.178 -0.0269 -0.0065 -1.1272
 3627UDC     C539891  17.132  15.166  12.225  1.4858  0.4071 -0.0860
 3627UDC     C639892  16.981  15.168  12.189 -0.2512 -0.2006 -0.0237
 3627UDC     C739893  16.892  15.267  12.269  0.3435 -0.5076  0.6533
 3627UDC     C839894  16.741  15.262  12.220 -0.2250 -1.6463 -0.5830
 3627UDC     C939895  16.714  15.288  12.067  1.0039 -0.7835 -0.5810
 3627UDC    C1039896  16.569  15.265  12.016  0.0909  1.1086  0.9642
 3627UDC    C1139897  16.505  15.132  12.065  0.7002 -1.1238 -0.0436
 3628UDC     C139898  13.427  13.879  17.467  0.2800  0.0043 -0.4835
 3628UDC     C239899  13.389  13.979  17.579 -0.0896 -1.3327  0.2534
 3628UDC     C339900  13.246  13.952  17.633 -0.1828 -0.8929 -0.2428
 3628UDC     C439901  13.124  14.033  17.576 -0.0504  0.3465 -0.0388
 3628UDC     C539902  13.023  14.045  17.693  0.8120  0.7563  0.4643
 3628UDC     C639903  12.980  14.178  17.752  0.7194  0.0496  0.3195
 3628UDC     C739904  13.084  14.270  17.825 -0.5791  0.5357 -1.0128
 3628UDC     C839905  13.196  14.351  17.753 -0.0963  1.0093  0.3106
 3628UDC     C939906  13.289  14.380  17.867 -0.3545 -0.8631 -0.7766
 3628UDC    C1039907  13.422  14.455  17.842  0.1265  0.1495  0.7706
 3628UDC    C1139908  13.500  14.468  17.969 -0.0902 -0.9498  0.2897
 3629UDC     C139909   1.280   5.145   7.768 -0.2419  0.8174 -0.1863
 3629UDC     C239910   1.341   5.277   7.800 -0.2080 -1.0776 -0.1035
 3629UDC     C339911   1.472   5.319   7.730  0.1187  0.2263  1.3587
 3629UDC     C439912   1.556   5.437   7.781  0.5308 -0.8748 -0.4960
 3629UDC     C539913   1.675   5.438   7.687  0.1013  1.5572  0.2614
 3629UDC     C639914   1.662   5.514   7.553 -0.1389 -0.3081  0.9884
 3629UDC     C739915   1.756   5.635   7.537  1.1100  0.3519 -0.7561
 3629UDC     C839916   1.907   5.639   7.525  0.5037 -0.1456 -0.3031
 3629UDC     C939917   1.994   5.731   7.614  0.8518 -0.0922 -0.2840
 3629UDC    C1039918   2.131   5.791   7.572 -0.5828 -0.5642  0.3188
 3629UDC    C1139919   2.146   5.932   7.519 -0.0885 -0.0125  0.4575
 3630UDC     C139920  17.227   2.492   5.474  0.3560  0.1151  0.3500
 3630UDC     C239921  17.234   2.337   5.489 -0.1851  1.3053  1.3864
 3630UDC     C339922  17.101   2.275   5.548 -1.1891  1.5124  0.3546
 3630UDC     C439923  17.090   2.119   5.528  0.0514  1.0729 -0.8617
 3630UDC     C539924  17.227   2.058   5.566 -1.0900 -0.7672 -0.8583
 3630UDC     C639925  17.242   2.022   5.706 -0.5699 -0.0623 -0.9428
 3630UDC     C739926  17.348   1.914   5.764  0.4669 -0.8289 -0.2177
 3630UDC     C839927  17.348   1.883   5.917 -0.9007  0.2162 -1.0269
 3630UDC     C939928  17.218   1.907   5.984  0.6714  0.0168 -1.0858
 3630UDC    C1039929  17.242   1.926   6.139 -0.2156 -0.1180 -0.2809
 3630UDC    C1139930  17.349   2.028   6.182  0.2753 -0.7460 -1.0689
 3631UDC     C139931  15.918  11.506   1.162  0.5894  0.7117  0.4549
 3631UDC     C239932  15.824  11.499   1.037  0.6514 -0.2009  0.1762
 3631UDC     C339933  15.672  11.459   1.046 -0.4289 -0.2869 -1.3496
 3631UDC     C439934  15.644  11.324   1.115 -1.5511  0.7487  0.5007
 3631UDC     C539935  15.514  11.294   1.160 -0.1383  1.1290  0.5664
 3631UDC     C639936  15.488  11.141   1.194  0.4086  0.2152 -0.2532
 3631UDC     C739937  15.558  11.087   1.321 -0.0730  0.1554 -0.2707
 3631UDC     C839938  15.520  11.156   1.448  0.4731  0.1925 -0.3530
 3631UDC     C939939  15.589  11.091   1.562 -0.8928  0.3600  0.6832
 3631UDC    C1039940  15.695  11.190   1.615  0.0021 -0.1599 -0.2921
 3631UDC    C1139941  15.783  11.266   1.509 -0.5019 -0.1242 -0.6611
 3632UDC     C139942   2.193  10.772   0.093  0.8775 -1.0014 -0.2698
 3632UDC     C239943   2.161  10.718   0.235 -0.1595  1.0972  0.8069
 3632UDC     C339944   2.287  10.665   0.298  0.6125  1.0212  0.5154
 3632UDC     C439945   2.361  10.768   0.388 -0.3729  0.4762  0.0080
 3632UDC     C539946   2.505  10.743   0.410 -0.1284 -1.1762 -0.1602
 3632UDC     C639947   2.538  10.624   0.501  0.3010 -0.1999 -0.3667
 3632UDC     C739948   2.681  10.587   0.487 -1.3690  0.9439 -0.4263
 3632UDC     C839949   2.752  10.498   0.596  0.3329  0.3163  0.8629
 3632UDC     C939950   2.906  10.510   0.563 -0.1811 -0.7090 -0.3257
 3632UDC    C1039951   2.987  10.499   0.698  1.1055 -0.8141  0.4681
 3632UDC    C1139952   3.140  10.544   0.686  0.0078 -0.4726 -0.0835
 3633UDC     C139953  19.213  10.475   5.179  0.8377 -0.9120  0.0323
 3633UDC     C239954  19.339  10.461   5.264  0.1446 -1.0961  0.1486
 3633UDC     C339955  19.464  10.445   5.173  0.6573 -0.0535 -0.0438
 3633UDC     C439956  19.453  10.332   5.071  0.6032  0.5050  1.0125
 3633UDC     C539957  19.592  10.306   5.018  0.2151  0.6865 -0.2113
 3633UDC     C639958  19.620  10.347   4.878 -0.0526 -0.6332  0.2336
 3633UDC     C739959  19.764  10.345   4.846  0.4841  0.7084  0.0395
 3633UDC     C839960  19.803  10.450   4.738 -0.3331  0.1196 -0.3189
 3633UDC     C939961  19.818  10.601   4.777  0.1657  0.5291  0.2856
 3633UDC    C1039962  19.939  10.595   4.871 -0.2993 -0.0580  0.7235
 3633UDC    C1139963  20.078  10.556   4.816 -0.5716 -0.7384  0.1411
 3634UDC     C139964  11.725  16.026   4.516 -0.0316  0.4562 -0.5431
 3634UDC     C239965  11.659  16.118   4.413 -0.2724  0.0481 -0.1894
 3634UDC     C339966  11.756  16.186   4.314 -0.6134 -0.7336  0.6449
 3634UDC     C439967  11.688  16.284   4.213  0.2093  0.1129 -0.1239
 3634UDC     C539968  11.557  16.342   4.264  1.7142  0.0450  0.2121
 3634UDC     C639969  11.477  16.383   4.137 -0.9125  0.6768 -0.8540
 3634UDC     C739970  11.361  16.486   4.148  0.4380  0.0589  0.2003
 3634UDC     C839971  11.261  16.417   4.237 -1.3027 -0.1446 -0.0079
 3634UDC     C939972  11.139  16.517   4.235 -0.8551 -0.2736  0.7025
 3634UDC    C1039973  11.098  16.533   4.092 -0.2204  1.4377 -0.2499
 3634UDC    C1139974  10.971  16.611   4.071  1.1961  0.9437  0.8287
 3635UDC     C139975  12.990  14.915   1.833  0.0156  0.4182  1.2681
 3635UDC     C239976  12.979  15.032   1.923 -0.0182 -1.2533 -0.2592
 3635UDC     C339977  12.856  15.001   2.016 -0.5516 -0.8085  0.6761
 3635UDC     C439978  12.844  15.050   2.160  0.1468  0.0748 -0.1270
 3635UDC     C539979  12.711  15.009   2.222 -1.2017 -0.6932  0.2771
 3635UDC     C639980  12.710  15.016   2.375  0.4036  0.1773 -0.9297
 3635UDC     C739981  12.687  14.876   2.441  0.3011 -0.4387  0.0318
 3635UDC     C839982  12.797  14.814   2.527 -0.6611  0.3432  0.0878
 3635UDC     C939983  12.905  14.750   2.437  0.1852  0.3818 -0.8502
 3635UDC    C1039984  13.006  14.649   2.506 -0.3827 -0.4714  1.2347
 3635UDC    C1139985  12.956  14.508   2.535 -1.0860 -0.3453  0.6416
 3636UDC     C139986  18.789  11.601   0.002  0.9377  0.8749  0.2466
 3636UDC     C239987  18.856  11.688   0.106 -0.7015 -2.0259  0.9224
 3636UDC     C339988  18.844  11.841   0.060  0.1720 -0.6902 -0.4873
 3636UDC     C439989  18.702  11.896   0.036 -0.5209  0.6255 -0.1275
 3636UDC     C539990  18.634  11.928   0.176  0.6422  0.0127  0.5382
 3636UDC     C639991  18.485  11.971   0.172  0.5932 -0.0885 -0.2363
 3636UDC     C739992  18.472  12.090   0.079  0.0252  0.0533 -0.0887
 3636UDC     C839993  18.335  12.144   0.058  1.0807 -0.0340 -0.2527
 3636UDC     C939994  18.333  12.249  -0.061 -0.4889  0.0593  0.4854
 3636UDC    C1039995  18.202  12.308  -0.087  0.6712 -0.0126  1.0564
 3636UDC    C1139996  18.216  12.460  -0.090  0.0533  0.2776  0.2742
 3637UDC     C139997  15.270  13.498  15.770  1.2200 -0.9655  1.1143
 3637UDC     C239998  15.145  13.580  15.706 -0.2266  0.9419 -0.2163
 3637UDC     C339999  15.103  13.520  15.570 -0.1073 -0.7202  0.3158
 3637UDC     C440000  14.990  13.578  15.484  1.0660  0.8194  0.0954
 3637UDC     C540001  15.004  13.711  15.416 -0.2139 -0.0530 -0.5866
 3637UDC     C640002  15.131  13.739  15.334 -0.6561  0.6189  2.0663
 3637UDC     C740003  15.124  13.876  15.275 -0.1484  1.2398 -0.3391
 3637UDC     C840004  15.029  13.870  15.160 -0.0087 -0.1138 -0.3656
 3637UDC     C940005  15.031  14.007  15.089 -0.3460  0.5006 -0.4865
 3637UDC    C1040006  14.929  14.031  14.984 -0.6617  0.9815 -1.1334
 3637UDC    C1140007  14.795  13.956  14.997 -1.0298 -0.2857  0.6056
 3638UDC     C140008   5.565  16.279   8.349 -0.9039 -0.6118  0.1053
 3638UDC     C240009   5.462  16.356   8.434  0.0099 -0.8503  0.2556
 3638UDC     C340010   5.483  16.509   8.441  0.5842  0.2250  0.0059
 3638UDC     C440011   5.490  16.538   8.592 -0.0172  0.1507 -0.7098
 3638UDC     C540012   5.351  16.563   8.661 -0.6454  0.1454  0.5280
 3638UDC     C640013   5.353  16.521   8.802  0.9246  0.0367 -1.4622
 3638UDC     C740014   5.229  16.560   8.884  0.5389  0.8224 -0.5960
 3638UDC     C840015   5.227  16.496   9.036 -0.5794 -0.3542  1.0016
 3638UDC     C940016   5.248  16.342   9.068  0.3593 -0.8232  0.9033
 3638UDC    C1040017   5.160  16.313   9.187 -0.8789  0.2277  0.8370
 3638UDC    C1140018   5.009  16.335   9.191  0.2965  0.5946  0.3505
 3639UDC     C140019   5.526   8.895   2.751 -0.1495 -0.1064  0.2699
 3639UDC     C240020   5.396   8.978   2.802 -0.2592  0.4267 -0.4799
 3639UDC     C340021   5.419   9.086   2.914 -0.8819 -1.1591  1.1374
 3639UDC     C440022   5.305   9.176   2.940  0.5543  0.1849 -0.7332
 3639UDC     C540023   5.179   9.093   2.984  0.5619 -0.1283  0.2867
 3639UDC     C640024   5.044   9.154   2.925  0.5319 -0.7439 -0.3100
 3639UDC     C740025   5.001   9.292   2.974 -0.5280  0.3907  0.3297
 3639UDC     C840026   4.865   9.321   2.915  0.4849 -0.5730 -0.0777
 3639UDC     C940027   4.775   9.198   2.921 -0.1781 -0.8228  0.6626
 3639UDC    C1040028   4.754   9.112   3.048  0.7086  0.3986 -0.2828
 3639UDC    C1140029   4.679   9.177   3.173  1.1542 -1.8784  0.0052
 3640UDC     C140030  17.010   0.987  12.158  1.2764 -0.4221 -0.1550
 3640UDC     C240031  17.114   1.105  12.155 -0.4223  0.0561  0.9888
 3640UDC     C340032  17.140   1.176  12.008 -0.1509 -0.3414  1.0711
 3640UDC     C440033  16.997   1.227  11.977  0.1368  0.1257  0.5211
 3640UDC     C540034  16.995   1.379  12.027  0.8050  1.1733  0.5623
 3640UDC     C640035  16.860   1.470  12.012 -0.8895 -0.3075 -0.2446
 3640UDC     C740036  16.774   1.479  12.141  0.1107 -0.2036 -1.1799
 3640UDC     C840037  16.772   1.618  12.219  0.4257  0.0706  0.7837
 3640UDC     C940038  16.678   1.613  12.341 -0.6907 -0.9156  0.2489
 3640UDC    C1040039  16.537   1.551  12.342 -0.4170 -0.8653  0.2682
 3640UDC    C1140040  16.479   1.516  12.485  0.2092 -0.0564  0.7481
 3641UDC     C140041   5.554   6.238   2.351 -0.2356 -0.6226  0.2526
 3641UDC     C240042   5.563   6.372   2.424 -0.4669 -0.4020 -0.8865
 3641UDC     C340043   5.669   6.469   2.366  0.0648 -0.4160  0.2768
 3641UDC     C440044   5.585   6.582   2.307 -0.2365 -0.6126  0.6054
 3641UDC     C540045   5.651   6.704   2.252  0.2997  0.1578 -0.0292
 3641UDC     C640046   5.564   6.792   2.161 -0.9179  0.8807  0.2674
 3641UDC     C740047   5.476   6.721   2.058 -0.2580 -1.0566  0.5626
 3641UDC     C840048   5.433   6.826   1.950  0.7254 -0.3561 -0.2322
 3641UDC     C940049   5.369   6.741   1.844  0.0567  0.6551  0.5435
 3641UDC    C1040050   5.218   6.706   1.853  0.0251 -0.4686 -1.2224
 3641UDC    C1140051   5.186   6.569   1.901  0.1840 -0.2094 -0.3582
 3642UDC     C140052  10.137  16.682  16.880 -0.6132  0.7528  0.6234
 3642UDC     C240053  10.016  16.737  16.804 -1.1364  1.2186 -0.0407
 3642UDC     C340054   9.898  16.775  16.896  0.7243 -0.0743  0.2922
 3642UDC     C440055   9.910  16.925  16.926 -0.8534  1.1584 -0.4689
 3642UDC     C540056   9.787  17.010  16.957 -0.2423  0.3678  0.8947
 3642UDC     C640057   9.812  17.162  16.969 -0.4309 -0.6810  0.1601
 3642UDC     C740058   9.690  17.238  17.021 -0.5019  0.5008  0.3906
 3642UDC     C840059   9.648  17.181  17.162  0.7275  0.1714 -0.2889
 3642UDC     C940060   9.501  17.125  17.163 -0.2757 -0.4611 -0.2398
 3642UDC    C1040061   9.492  16.980  17.208 -0.0711 -0.2256  0.5220
 3642UDC    C1140062   9.394  16.888  17.129 -0.2259 -0.3370 -0.0732
 3643UDC     C140063  17.005  15.685   5.548  1.2425 -0.1320  0.8452
 3643UDC     C240064  16.975  15.722   5.694  0.8174  0.3566  0.2459
 3643UDC     C340065  17.007  15.868   5.720  0.9365 -0.3619 -0.7824
 3643UDC     C440066  17.092  15.898   5.850 -0.6082  0.7158  0.1169
 3643UDC     C540067  17.124  16.051   5.875  0.2953  0.6697 -0.2094
 3643UDC     C640068  17.207  16.076   6.006 -0.1687  0.9313 -0.1651
 3643UDC     C740069  17.155  16.195   6.071  0.4547 -1.2277 -0.9398
 3643UDC     C840070  17.260  16.258   6.160  0.3682 -0.4419  0.6440
 3643UDC     C940071  17.206  16.346   6.270  0.6376 -1.0428 -0.6927
 3643UDC    C1040072  17.124  16.467   6.218 -0.2306 -0.6782 -0.2550
 3643UDC    C1140073  17.122  16.591   6.306 -0.3928  0.3379  0.3443
 3644UDC     C140074   4.533   9.053  18.893  0.1007 -0.5211 -0.6886
 3644UDC     C240075   4.592   8.941  18.983  0.8838  0.4926  0.9624
 3644UDC     C340076   4.523   8.808  18.954  0.5726 -1.6345 -0.1847
 3644UDC     C440077   4.548   8.756  18.818 -0.2240  0.4444  0.2801
 3644UDC     C540078   4.656   8.650  18.792 -0.7172 -0.0963 -0.5138
 3644UDC     C640079   4.600   8.502  18.785 -1.0971  0.0987  0.4647
 3644UDC     C740080   4.710   8.385  18.794  0.2526 -0.1728 -0.0491
 3644UDC     C840081   4.648   8.242  18.799 -1.0385 -0.6603 -0.1266
 3644UDC     C940082   4.715   8.151  18.903 -0.4374 -1.2602 -0.8393
 3644UDC    C1040083   4.866   8.152  18.894 -0.7861 -0.0276 -0.4629
 3644UDC    C1140084   4.924   8.084  18.768  0.1899 -0.6655 -0.9937
 3645UDC     C140085  15.364  18.396   9.062 -0.3036 -0.4308  0.5061
 3645UDC     C240086  15.381  18.398   8.912  0.1325 -0.4713  0.7024
 3645UDC     C340087  15.244  18.449   8.842  0.4887  0.0782 -1.1447
 3645UDC     C440088  15.146  18.343   8.798 -0.3983 -0.1524  0.3235
 3645UDC     C540089  15.006  18.392   8.751  0.2388  0.6163 -0.0109
 3645UDC     C640090  14.903  18.359   8.854 -0.4790 -0.6430  0.6205
 3645UDC     C740091  14.803  18.460   8.900  0.3536 -0.3730 -0.5453
 3645UDC     C840092  14.703  18.499   8.789  0.3828  0.0230 -0.2504
 3645UDC     C940093  14.606  18.604   8.843  0.0185 -0.4447  1.5692
 3645UDC    C1040094  14.536  18.675   8.725 -0.6452  0.2723 -0.7300
 3645UDC    C1140095  14.407  18.610   8.668 -0.9556  0.8264  0.1846
 3646UDC     C140096   1.714   5.144   6.812  0.3575  0.1498 -0.0366
 3646UDC     C240097   1.708   5.194   6.668 -0.0744 -0.1783  0.1626
 3646UDC     C340098   1.843   5.224   6.604  0.5930 -0.7775 -0.9128
 3646UDC     C440099   1.843   5.326   6.493  0.0726  0.8194  0.8721
 3646UDC     C540100   1.781   5.288   6.356 -0.6477  0.5902 -0.1036
 3646UDC     C640101   1.799   5.392   6.242  1.0333  1.1468  0.3299
 3646UDC     C740102   1.686   5.360   6.139  0.0546  0.1336 -0.1178
 3646UDC     C840103   1.731   5.227   6.072  0.2490  0.4132  0.7008
 3646UDC     C940104   1.613   5.161   5.991  0.5171 -0.7227 -0.5116
 3646UDC    C1040105   1.676   5.051   5.899  0.4178 -0.3608 -0.1083
 3646UDC    C1140106   1.822   5.046   5.939 -0.5800 -0.0316 -0.6462
 3647UDC     C140107  11.498  12.691  19.248  0.7146  0.3069 -0.3674
 3647UDC     C240108  11.433  12.824  19.229  0.2079 -0.2512  0.1846
 3647UDC     C340109  11.442  12.890  19.090 -0.4663  0.3000 -0.0128
 3647UDC     C440110  11.406  13.040  19.078  0.4076  0.8848  0.2834
 3647UDC     C540111  11.470  13.152  19.152 -0.2865 -0.2486 -0.4909
 3647UDC     C640112  11.609  13.181  19.090  0.6185 -0.1815  0.0178
 3647UDC     C740113  11.590  13.195  18.935 -1.1705 -0.0069  0.6244
 3647UDC     C840114  11.582  13.328  18.850  0.3847 -0.5453  0.7969
 3647UDC     C940115  11.546  13.317  18.697  0.0410 -0.5476  0.9792
 3647UDC    C1040116  11.518  13.452  18.625  0.0668  0.3904 -0.2255
 3647UDC    C1140117  11.458  13.440  18.478 -0.1146  0.1265  0.1585
 3648UDC     C140118   6.635  13.727   0.930  0.1624 -0.7742  0.8531
 3648UDC     C240119   6.640  13.819   1.056 -0.0226 -0.4258 -1.0969
 3648UDC     C340120   6.774  13.895   1.081  1.0295 -0.6549  0.6085
 3648UDC     C440121   6.747  13.997   1.201  1.0923 -0.0239  0.7529
 3648UDC     C540122   6.644  13.932   1.294  0.5376 -0.2974  0.0101
 3648UDC     C640123   6.622  14.038   1.412  0.3378  1.7071  0.2585
 3648UDC     C740124   6.472  14.080   1.409 -0.1820  0.1405 -0.5802
 3648UDC     C840125   6.425  14.148   1.281  0.3117  0.4643  0.6475
 3648UDC     C940126   6.281  14.193   1.282 -0.7562  0.5908 -0.2714
 3648UDC    C1040127   6.274  14.342   1.259  0.1834  0.2150 -0.6482
 3648UDC    C1140128   6.352  14.394   1.135  0.6465 -0.2973  0.7668
 3649UDC     C140129  18.618   5.505  11.017  0.7752 -0.0463  0.3605
 3649UDC     C240130  18.646   5.641  10.939  0.3122  0.1922  1.7214
 3649UDC     C340131  18.546   5.680  10.825  0.0859  0.0067  0.7264
 3649UDC     C440132  18.575   5.820  10.758 -0.0411  1.5603 -0.7002
 3649UDC     C540133  18.453   5.875  10.684  1.3574  0.8371  0.3717
 3649UDC     C640134  18.469   6.029  10.685 -0.3561  0.3565  0.5996
 3649UDC     C740135  18.606   6.088  10.648  0.0655  0.1835  0.9618
 3649UDC     C840136  18.655   6.194  10.742  0.1145 -0.0251  0.7656
 3649UDC     C940137  18.791   6.252  10.691  0.1895  0.7439  0.2287
 3649UDC    C1040138  18.856   6.364  10.775 -0.8135  0.3155 -0.3371
 3649UDC    C1140139  18.976   6.435  10.709  0.3602  0.2678 -0.0402
 3650UDC     C140140  18.349   9.903   8.267 -1.0938 -0.4601  0.4744
 3650UDC     C240141  18.217   9.821   8.249  0.0619 -1.7848  0.1186
 3650UDC     C340142  18.112   9.827   8.365  0.2636  0.6009 -0.2448
 3650UDC     C440143  18.108   9.951   8.455  1.6076 -0.6923  1.2698
 3650UDC     C540144  17.988   9.942   8.553 -0.2589 -0.1361 -0.0202
 3650UDC     C640145  18.021   9.973   8.698  0.4371  0.0041 -0.1970
 3650UDC     C740146  17.909   9.982   8.804  0.0782  0.5914  0.0760
 3650UDC     C840147  17.974  10.016   8.941 -0.4794 -0.8060  0.6883
 3650UDC     C940148  18.065  10.147   8.942  0.9572  1.3018 -0.2730
 3650UDC    C1040149  18.117  10.195   9.083 -0.1803  0.1914 -1.7646
 3650UDC    C1140150  18.106  10.086   9.192  0.5854 -0.8911  0.7226
 3651UDC     C140151  14.601  19.344   0.708 -0.6476  0.1919 -0.9390
 3651UDC     C240152  14.735  19.358   0.788  0.5181  0.3731  1.4593
 3651UDC     C340153  14.727  19.360   0.942  0.1879 -0.0486  0.1753
 3651UDC     C440154  14.678  19.476   1.017  0.7993 -0.9467 -1.4525
 3651UDC     C540155  14.635  19.446   1.156 -0.6408  0.4819 -0.8017
 3651UDC     C640156  14.752  19.405   1.247  0.7030 -0.4583 -0.5812
 3651UDC     C740157  14.713  19.416   1.400 -0.5161 -0.3141  0.1267
 3651UDC     C840158  14.681  19.562   1.444  0.2688  0.6247  0.8227
 3651UDC     C940159  14.687  19.590   1.592  0.4834  1.2145 -1.2240
 3651UDC    C1040160  14.804  19.512   1.647 -1.2275 -0.1581 -1.5044
 3651UDC    C1140161  14.819  19.485   1.797  1.1817  0.1205  0.5901
 3652UDC     C140162  19.066   8.598   1.322 -0.3605  0.8454  0.1614
 3652UDC     C240163  19.116   8.515   1.201  0.1104 -0.2753  0.2505
 3652UDC     C340164  19.058   8.570   1.067 -0.2842 -1.1119 -0.1646
 3652UDC     C440165  19.073   8.722   1.045  0.4193  0.0103 -0.0034
 3652UDC     C540166  18.955   8.785   0.960 -0.4486 -0.4550 -0.0498
 3652UDC     C640167  18.970   8.937   0.914  0.2228  0.0342  0.5515
 3652UDC     C740168  19.012   8.977   0.772  0.4928 -0.9392 -0.0588
 3652UDC     C840169  18.988   9.131   0.751 -0.2366 -0.5631  0.1250
 3652UDC     C940170  18.845   9.175   0.783 -0.5338  0.7951 -1.8930
 3652UDC    C1040171  18.814   9.322   0.750 -0.9286 -0.5877 -0.9052
 3652UDC    C1140172  18.849   9.408   0.879  0.4224 -0.3431 -0.3413
 3653UDC     C140173  13.243  12.396   7.014  0.4119 -0.3670  0.2540
 3653UDC     C240174  13.222  12.297   6.897 -0.0452 -1.1902 -0.5575
 3653UDC     C340175  13.164  12.155   6.914 -0.3775  0.4690 -0.5971
 3653UDC     C440176  13.247  12.061   7.013 -0.3566 -1.1769 -0.4695
 3653UDC     C540177  13.211  11.939   6.931  1.4282 -0.2140  0.0798
 3653UDC     C640178  13.258  11.807   6.994 -0.2960  0.7227  0.2910
 3653UDC     C740179  13.272  11.682   6.903  0.3969  0.5349  1.0754
 3653UDC     C840180  13.361  11.710   6.777  0.7776 -0.1902  0.6825
 3653UDC     C940181  13.512  11.728   6.801  1.4435  0.2105  0.8248
 3653UDC    C1040182  13.590  11.644   6.697 -0.3564 -0.3398  0.4725
 3653UDC    C1140183  13.577  11.499   6.726 -0.5803 -0.4171  0.8539
 3654UDC     C140184  17.372   6.322   1.896 -0.2623  0.5057  0.1617
 3654UDC     C240185  17.270   6.440   1.886 -0.8882 -0.9172  0.1254
 3654UDC     C340186  17.219   6.495   2.015  0.4758 -0.2493 -0.5428
 3654UDC     C440187  17.138   6.623   2.003  1.1554  0.5638 -0.0877
 3654UDC     C540188  17.070   6.665   2.130  1.0415 -0.1336 -0.5829
 3654UDC     C640189  17.145   6.661   2.265  0.5853  0.5487 -0.2012
 3654UDC     C740190  17.062   6.599   2.385  0.2663  0.2402  0.7529
 3654UDC     C840191  17.141   6.637   2.512  0.3092 -0.1383 -0.0759
 3654UDC     C940192  17.158   6.789   2.534  0.3355  0.0713  0.5530
 3654UDC    C1040193  17.023   6.841   2.588 -0.0049  0.2111 -0.6767
 3654UDC    C1140194  16.996   6.990   2.615  0.1446  1.0318  0.0793
 3655UDC     C140195  19.237   4.210   6.669  0.1661 -0.2195 -0.0433
 3655UDC     C240196  19.095   4.285   6.685 -0.8685  0.6572 -0.1380
 3655UDC     C340197  18.964   4.207   6.724 -0.2507  0.5851 -0.3045
 3655UDC     C440198  18.904   4.127   6.600  0.2555  0.1684 -1.4990
 3655UDC     C540199  18.909   3.972   6.594 -0.7136  0.8451 -0.0666
 3655UDC     C640200  19.044   3.897   6.592  0.5152 -0.2646 -1.0996
 3655UDC     C740201  19.010   3.750   6.597  0.1247  0.9788 -0.4607
 3655UDC     C840202  18.884   3.723   6.505 -0.5794 -0.2425 -0.4116
 3655UDC     C940203  18.830   3.588   6.555  0.0472  0.0228 -0.2051
 3655UDC    C1040204  18.909   3.465   6.513  0.4563  0.2516 -0.1772
 3655UDC    C1140205  18.825   3.367   6.426  0.6795 -0.5255  0.5804
 3656UDC     C140206  19.830   4.308   1.796  0.8727 -0.0724  0.2136
 3656UDC     C240207  19.759   4.445   1.828 -0.5914  0.9961 -0.5412
 3656UDC     C340208  19.640   4.475   1.927  0.0796  0.8937 -0.2122
 3656UDC     C440209  19.671   4.463   2.080  0.1252 -0.3191  1.2392
 3656UDC     C540210  19.653   4.336   2.163 -0.3115  0.4834  0.1215
 3656UDC     C640211  19.751   4.344   2.291  0.1771 -0.3489 -0.4102
 3656UDC     C740212  19.903   4.343   2.270 -0.3448  0.3255  0.3754
 3656UDC     C840213  19.940   4.205   2.209  0.0209  0.7931 -1.6938
 3656UDC     C940214  20.070   4.179   2.136 -0.5802 -0.4262  0.0508
 3656UDC    C1040215  20.175   4.111   2.217  0.5853  0.3891 -0.3801
 3656UDC    C1140216  20.303   4.057   2.148  0.0923  0.1189  0.1272
 3657UDC     C140217   7.412   4.586   8.886  0.5946  0.1676  0.2952
 3657UDC     C240218   7.329   4.516   8.776  0.8685 -0.0735 -0.2183
 3657UDC     C340219   7.416   4.413   8.713 -0.9310 -0.0104 -0.2119
 3657UDC     C440220   7.345   4.358   8.587 -1.2455 -0.4893  0.9160
 3657UDC     C540221   7.220   4.285   8.623  0.1390  0.2513 -0.3578
 3657UDC     C640222   7.165   4.207   8.499 -0.0941  0.3865 -0.4337
 3657UDC     C740223   7.015   4.196   8.511 -0.3375  0.1781 -0.1508
 3657UDC     C840224   6.952   4.330   8.529  0.7404  0.2329  0.9530
 3657UDC     C940225   6.809   4.324   8.579 -0.0296  0.3617 -1.7733
 3657UDC    C1040226   6.741   4.460   8.600 -0.7648 -0.3531 -0.1028
 3657UDC    C1140227   6.770   4.582   8.506 -1.4209  0.0576 -0.5714
 3658UDC     C140228  18.988  10.786   6.087  0.3006 -0.4367  0.5224
 3658UDC     C240229  19.015  10.666   5.994 -0.5662 -1.0127 -0.5338
 3658UDC     C340230  18.894  10.595   5.928 -0.4786  0.2812 -0.3124
 3658UDC     C440231  18.964  10.501   5.835  1.3155 -0.0467  1.4412
 3658UDC     C540232  18.919  10.488   5.688 -0.5118  0.3337 -0.1306
 3658UDC     C640233  18.954  10.610   5.609 -0.4252 -0.4463 -1.6335
 3658UDC     C740234  18.824  10.695   5.598 -0.8945 -0.7151 -0.2931
 3658UDC     C840235  18.845  10.841   5.558 -2.0097 -0.3690  0.2997
 3658UDC     C940236  18.915  10.835   5.420 -0.0308 -0.2906  0.7643
 3658UDC    C1040237  18.811  10.781   5.320  0.9876 -1.3135 -0.9651
 3658UDC    C1140238  18.867  10.740   5.186 -0.0616 -0.5285  1.3044
 3659UDC     C140239  14.049  17.343  14.168 -0.4791  0.1249 -1.7708
 3659UDC     C240240  14.065  17.441  14.056 -0.8703  0.2254  0.6259
 3659UDC     C340241  14.133  17.575  14.092  1.2218  0.5421 -0.4764
 3659UDC     C440242  14.286  17.588  14.060  1.0255 -0.1943  1.4579
 3659UDC     C540243  14.369  17.679  14.148  1.0876  0.3410 -0.1525
 3659UDC     C640244  14.386  17.826  14.113  1.0522 -0.5094 -0.1777
 3659UDC     C740245  14.285  17.929  14.148  0.0256  0.3320  0.9181
 3659UDC     C840246  14.160  17.961  14.063  0.5597 -0.0526 -0.1842
 3659UDC     C940247  14.200  18.059  13.958 -0.5732  0.1843  0.8503
 3659UDC    C1040248  14.119  18.077  13.826 -1.7523  1.1520 -0.4176
 3659UDC    C1140249  14.231  18.127  13.725  0.8872  0.4472  0.1170
 3660UDC     C140250   0.329  17.406  19.115 -1.1673 -0.1202 -0.7364
 3660UDC     C240251   0.450  17.316  19.116  0.6299 -0.1686 -0.2507
 3660UDC     C340252   0.543  17.336  19.235  0.6975 -0.0616 -0.3236
 3660UDC     C440253   0.469  17.336  19.366  0.3781 -0.0557  0.1684
 3660UDC     C540254   0.560  17.265  19.467  0.8135 -0.4885 -0.8001
 3660UDC     C640255   0.482  17.204  19.584 -0.8238  0.1107  0.0149
 3660UDC     C740256   0.410  17.305  19.670  0.2974  0.1898  0.3912
 3660UDC     C840257   0.344  17.247  19.799  0.0461  0.3246  0.0950
 3660UDC     C940258   0.434  17.144  19.860 -0.4609  0.0811 -0.2865
 3660UDC    C1040259   0.453  17.138  20.012  0.3832 -0.4772 -0.5785
 3660UDC    C1140260   0.323  17.092  20.081  0.3636 -0.2373 -0.4633
 3661UDC     C140261  19.007   1.886  10.244  0.4992 -0.1858 -0.7004
 3661UDC     C240262  18.880   1.840  10.164 -1.1065 -0.0037  0.4936
 3661UDC     C340263  18.869   1.861  10.009 -0.5664  0.4318 -0.4492
 3661UDC     C440264  18.733   1.798   9.971  0.8320 -1.2957 -0.5868
 3661UDC     C540265  18.719   1.783   9.821  0.1486 -0.0650 -0.4581
 3661UDC     C640266  18.588   1.696   9.809  0.5238 -0.5649  0.3968
 3661UDC     C740267  18.472   1.700   9.903  0.1942 -0.5050 -0.3599
 3661UDC     C840268  18.383   1.577   9.928  0.2218 -0.3000  0.5435
 3661UDC     C940269  18.449   1.439   9.932  0.3400  0.4905  0.2619
 3661UDC    C1040270  18.341   1.327   9.950 -0.0079 -0.6466 -0.0937
 3661UDC    C1140271  18.251   1.330  10.074  0.8397  0.2336  0.2054
 3662UDC     C140272  19.716   2.992   9.304  0.2771  0.7211 -0.9677
 3662UDC     C240273  19.628   2.917   9.413  0.0261 -0.7127  0.1125
 3662UDC     C340274  19.471   2.949   9.385 -1.5663  0.6033  0.0573
 3662UDC     C440275  19.365   2.850   9.440 -0.6404  0.0120 -0.0799
 3662UDC     C540276  19.313   2.912   9.577 -0.0992  0.8478 -0.1611
 3662UDC     C640277  19.254   3.048   9.551 -0.0237 -1.2349 -0.3464
 3662UDC     C740278  19.212   3.122   9.680  0.0279  0.5554 -0.8702
 3662UDC     C840279  19.221   3.275   9.668  0.1777 -0.2040 -0.2236
 3662UDC     C940280  19.374   3.306   9.646  0.6737  0.1472 -0.0506
 3662UDC    C1040281  19.408   3.451   9.610 -0.2839 -0.2401 -0.1444
 3662UDC    C1140282  19.561   3.454   9.582  0.1493 -0.8004  0.5473
 3663UDC     C140283   6.496  15.135   1.632  0.4255 -1.0811  0.0892
 3663UDC     C240284   6.453  14.981   1.602  0.2652  0.8676  0.1376
 3663UDC     C340285   6.553  14.943   1.487 -0.4647 -0.8308  0.1902
 3663UDC     C440286   6.699  14.951   1.534 -1.1777 -0.2047 -0.0947
 3663UDC     C540287   6.803  14.871   1.442 -1.0195 -0.1739 -0.7429
 3663UDC     C640288   6.779  14.885   1.294 -0.2958 -0.6011 -0.5740
 3663UDC     C740289   6.884  14.809   1.207  0.4165  0.1797 -0.5705
 3663UDC     C840290   7.028  14.832   1.256  0.0596  0.0581  0.3191
 3663UDC     C940291   7.115  14.709   1.220  0.7328 -0.0017  0.3521
 3663UDC    C1040292   7.258  14.737   1.255 -0.7907  0.5350 -0.6646
 3663UDC    C1140293   7.297  14.743   1.402  1.7150 -0.9631  0.1793
 3664UDC     C140294  12.892  19.474   7.778 -0.6876  0.3450  0.0313
 3664UDC     C240295  13.004  19.491   7.679 -1.1891  0.1742 -0.9304
 3664UDC     C340296  13.114  19.592   7.705  0.8587  0.2625 -0.5559
 3664UDC     C440297  13.234  19.558   7.807  0.0304  0.0253 -0.7232
 3664UDC     C540298  13.348  19.659   7.787 -0.2769 -1.0121  0.2589
 3664UDC     C640299  13.418  19.686   7.926  0.4796  0.9259 -0.6887
 3664UDC     C740300  13.508  19.570   7.976  0.0637 -0.5261 -0.2453
 3664UDC     C840301  13.537  19.594   8.120  0.3054  0.0463  0.0913
 3664UDC     C940302  13.404  19.593   8.200 -0.8559  0.3047 -0.1378
 3664UDC    C1040303  13.398  19.594   8.355 -1.3247 -0.7415  0.1273
 3664UDC    C1140304  13.493  19.698   8.421  0.3313 -0.8801  0.3495
 3665UDC     C140305  13.764   9.688   0.600  0.9568  0.4642  0.1969
 3665UDC     C240306  13.884   9.720   0.688 -0.9601 -1.1043  0.0420
 3665UDC     C340307  14.015   9.645   0.631  0.1196 -0.2094 -0.4029
 3665UDC     C440308  14.056   9.690   0.490  1.1360 -0.8152 -0.5321
 3665UDC     C540309  14.183   9.609   0.443  0.9512  0.6960 -0.0177
 3665UDC     C640310  14.293   9.707   0.411 -0.8764 -0.3452  0.0389
 3665UDC     C740311  14.407   9.642   0.330  0.7917  0.8368  0.0030
 3665UDC     C840312  14.520   9.736   0.293  0.0705 -0.6186  1.0406
 3665UDC     C940313  14.640   9.675   0.215 -0.1751  0.9672 -0.7689
 3665UDC    C1040314  14.758   9.775   0.200 -0.6701 -0.2337  0.7637
 3665UDC    C1140315  14.855   9.790   0.320  0.3417  0.4060  1.3599
 3666UDC     C140316   8.086   7.458   7.728  0.6987 -0.3825 -0.0288
 3666UDC     C240317   8.170   7.331   7.718  0.6093 -0.2179  0.3117
 3666UDC     C340318   8.228   7.297   7.574  0.0736 -0.0904  0.5744
 3666UDC     C440319   8.305   7.165   7.566 -0.0253  0.4523 -0.4565
 3666UDC     C540320   8.432   7.159   7.476  0.3626 -0.3162  0.0529
 3666UDC     C640321   8.480   7.010   7.490  0.5617 -0.4614 -1.1533
 3666UDC     C740322   8.594   6.970   7.397 -1.2910 -0.2301  0.5256
 3666UDC     C840323   8.725   6.981   7.478 -0.3366 -0.4885 -0.0157
 3666UDC     C940324   8.842   6.932   7.394 -0.0847 -0.8880 -0.6010
 3666UDC    C1040325   8.977   6.994   7.433  0.1121 -0.5073  0.0596
 3666UDC    C1140326   8.985   7.147   7.430 -0.5635 -0.6823  0.6246
 3667UDC     C140327   2.372   1.777  15.263  0.6743  0.1489 -0.4103
 3667UDC     C240328   2.427   1.854  15.382  0.2206  0.3756  0.6977
 3667UDC     C340329   2.575   1.877  15.387  0.1242  1.4967  0.2914
 3667UDC     C440330   2.630   1.960  15.506 -0.7876  0.6991 -0.9570
 3667UDC     C540331   2.788   1.940  15.526 -0.0042 -0.9987  0.4278
 3667UDC     C640332   2.867   2.059  15.596 -0.3824  0.6613 -0.2747
 3667UDC     C740333   3.020   2.031  15.583 -0.2247 -0.3095 -0.4529
 3667UDC     C840334   3.105   2.156  15.575  0.2184 -0.0292 -0.0097
 3667UDC     C940335   3.251   2.133  15.627 -0.4384  0.0019  0.4258
 3667UDC    C1040336   3.368   2.224  15.568  0.7097 -0.4231  0.5899
 3667UDC    C1140337   3.511   2.188  15.615  0.2402 -0.4612  0.7889
 3668UDC     C140338   0.455   8.130   6.958 -0.3081 -0.7777 -0.0701
 3668UDC     C240339   0.588   8.169   6.896  0.0471  0.2965  0.5321
 3668UDC     C340340   0.700   8.157   6.996 -0.3520  0.9541 -0.3207
 3668UDC     C440341   0.787   8.025   6.989  0.2790 -0.0976 -0.0321
 3668UDC     C540342   0.905   8.006   7.087  0.5007 -0.3928  1.0787
 3668UDC     C640343   0.984   7.867   7.075  1.2553 -0.8672 -0.5980
 3668UDC     C740344   1.065   7.843   6.947  0.1244 -0.1842  1.4004
 3668UDC     C840345   1.212   7.887   6.931 -0.5603  0.1922  0.5322
 3668UDC     C940346   1.287   7.803   6.825  0.0400 -0.3725  0.3331
 3668UDC    C1040347   1.268   7.649   6.822  0.4700  0.1011 -0.3162
 3668UDC    C1140348   1.345   7.576   6.936 -0.0018  0.5114 -1.1931
 3669UDC     C140349   7.439   8.019   0.888  0.4736 -0.4514 -0.6770
 3669UDC     C240350   7.291   8.039   0.858 -0.6671  0.3797  0.0060
 3669UDC     C340351   7.237   7.893   0.821 -1.3208 -0.1982  0.9339
 3669UDC     C440352   7.094   7.908   0.786  0.4972 -0.5089  0.6780
 3669UDC     C540353   7.054   7.773   0.737  0.0578 -0.6199  0.2348
 3669UDC     C640354   6.973   7.763   0.605  0.6650  0.3193  0.5694
 3669UDC     C740355   6.817   7.788   0.620 -0.5107  0.1735 -0.2288
 3669UDC     C840356   6.756   7.828   0.487 -0.5344  0.4564  0.4210
 3669UDC     C940357   6.808   7.962   0.426 -0.2210  0.5876 -0.6781
 3669UDC    C1040358   6.749   7.994   0.289  0.8132 -0.3537  0.0405
 3669UDC    C1140359   6.813   8.115   0.221 -0.9135 -0.1465 -0.1964
 3670UDC     C140360  18.767  10.129   7.785 -0.4618 -0.3321  0.2436
 3670UDC     C240361  18.922  10.109   7.765  0.6204 -0.5533 -0.9254
 3670UDC     C340362  18.987   9.989   7.831 -0.0470  0.3067 -0.3265
 3670UDC     C440363  19.138   9.955   7.814  0.0723 -0.2848 -0.6821
 3670UDC     C540364  19.179   9.844   7.917  0.2777 -0.1775 -0.7509
 3670UDC     C640365  19.093   9.712   7.896  0.7901  0.2019  0.2534
 3670UDC     C740366  19.102   9.621   8.024  0.0986 -0.8867 -0.7741
 3670UDC     C840367  18.984   9.526   8.032  0.0488 -0.9753 -0.8694
 3670UDC     C940368  18.961   9.480   8.177 -0.2750  0.1585  0.0374
 3670UDC    C1040369  18.824   9.414   8.195 -0.2530  0.0033 -0.4710
 3670UDC    C1140370  18.779   9.293   8.111  0.1729 -0.5794 -1.0292
 3671UDC     C140371  12.478  19.776   4.327 -0.5256 -0.3399 -0.5335
 3671UDC     C240372  12.380  19.888   4.359 -0.3174 -0.0632 -0.9469
 3671UDC     C340373  12.407  19.933   4.502 -1.0273 -0.3901 -0.9909
 3671UDC     C440374  12.323  19.883   4.620 -0.0770 -0.0199  0.3215
 3671UDC     C540375  12.281  19.997   4.709  0.3056  0.2692  0.7382
 3671UDC     C640376  12.382  20.038   4.817 -0.0371  0.2874 -0.0464
 3671UDC     C740377  12.330  20.132   4.923  0.0122 -0.2878 -0.5290
 3671UDC     C840378  12.293  20.277   4.890 -0.2344  0.1584  0.7112
 3671UDC     C940379  12.153  20.317   4.827 -0.2269  0.1659  0.0959
 3671UDC    C1040380  12.037  20.340   4.925  0.3182  0.6682  0.4687
 3671UDC    C1140381  11.949  20.216   4.937  0.3961  0.0286  1.1060
 3672UDC     C140382   8.948  13.339   9.534 -0.1087 -0.8663  0.1252
 3672UDC     C240383   8.895  13.197   9.484 -0.2410 -0.0216 -0.5385
 3672UDC     C340384   8.779  13.219   9.379 -1.4216  1.0807  1.2754
 3672UDC     C440385   8.726  13.089   9.312  0.2068 -0.1979  0.0298
 3672UDC     C540386   8.607  13.118   9.215 -0.0436 -0.5193 -0.1212
 3672UDC     C640387   8.480  13.160   9.280  0.4967  1.0440 -0.0000
 3672UDC     C740388   8.342  13.144   9.202 -0.1872  0.0528 -0.2253
 3672UDC     C840389   8.369  13.011   9.128  0.0488  0.0398 -1.0617
 3672UDC     C940390   8.254  12.937   9.066 -0.0843  1.2066 -0.0794
 3672UDC    C1040391   8.285  12.790   9.046  0.9961  0.4477  0.1838
 3672UDC    C1140392   8.176  12.707   8.963 -0.2316  0.8095  0.5490
 3673UDC     C140393  11.358   7.709   1.767  0.4245  0.1305  0.5612
 3673UDC     C240394  11.329   7.704   1.913 -0.2227 -0.4477 -0.4584
 3673UDC     C340395  11.331   7.833   1.999 -0.2563 -0.4703  0.2538
 3673UDC     C440396  11.461   7.876   2.062 -0.7889 -0.3233 -0.7476
 3673UDC     C540397  11.457   8.022   2.112 -0.7618 -0.2912 -0.0353
 3673UDC     C640398  11.341   8.052   2.207  0.6319 -0.3606  0.0033
 3673UDC     C740399  11.308   8.194   2.252 -0.3941  0.2736  0.4559
 3673UDC     C840400  11.187   8.223   2.340  0.6008 -0.5787 -0.0027
 3673UDC     C940401  11.195   8.357   2.425  0.0221  0.0628  0.2249
 3673UDC    C1040402  11.241   8.487   2.339 -1.1135  0.0886 -0.0668
 3673UDC    C1140403  11.249   8.612   2.425  0.4508  0.6526 -0.6607
 3674UDC     C140404  18.556   2.732   9.942 -0.6262  1.0069 -0.2672
 3674UDC     C240405  18.649   2.645  10.028  0.9465 -0.7473  0.1622
 3674UDC     C340406  18.699   2.707  10.163 -1.5063 -0.1086 -0.1914
 3674UDC     C440407  18.717   2.601  10.271  0.0373  0.2642 -0.3877
 3674UDC     C540408  18.641   2.636  10.406 -1.9086  0.2038  0.5188
 3674UDC     C640409  18.659   2.541  10.523  0.2338 -0.7483  0.3959
 3674UDC     C740410  18.575   2.569  10.654  0.6451 -0.2283  0.8232
 3674UDC     C840411  18.432   2.637  10.633  0.2626  1.0357 -1.1781
 3674UDC     C940412  18.381   2.670  10.770 -0.8624 -0.0072 -0.7290
 3674UDC    C1040413  18.367   2.555  10.877 -0.0294 -0.1565  0.5946
 3674UDC    C1140414  18.302   2.598  11.003  0.5742 -0.8318 -0.1334
 3675UDC     C140415   6.575  18.531   8.036 -0.3444 -1.3636 -0.2362
 3675UDC     C240416   6.564  18.465   8.181 -0.3611  0.2106 -0.4547
 3675UDC     C340417   6.441  18.370   8.204 -0.5408  0.1549  0.4693
 3675UDC     C440418   6.321  18.404   8.300 -0.0531  0.4092  0.0691
 3675UDC     C540419   6.216  18.292   8.283  0.1287  0.5359 -0.1946
 3675UDC     C640420   6.232  18.168   8.378  0.5742  0.4095  0.2508
 3675UDC     C740421   6.214  18.200   8.525 -0.5575  1.3846 -0.0129
 3675UDC     C840422   6.082  18.130   8.568 -1.1057  0.1747  0.6340
 3675UDC     C940423   6.042  18.191   8.692  0.2056  0.4541  0.3967
 3675UDC    C1040424   6.127  18.131   8.802 -0.2255 -0.0059 -0.2869
 3675UDC    C1140425   6.102  17.993   8.862  0.1196 -0.7301  0.0336
 3676UDC     C140426   7.492   9.319  10.242 -0.4236 -0.6483 -0.3179
 3676UDC     C240427   7.567   9.190  10.287 -1.3146  0.6404 -1.0102
 3676UDC     C340428   7.703   9.203  10.351 -1.3265  0.1033 -0.0821
 3676UDC     C440429   7.754   9.064  10.372 -1.2588 -0.3797 -0.0271
 3676UDC     C540430   7.737   9.009  10.518 -0.7229 -1.1594 -0.6026
 3676UDC     C640431   7.589   8.966  10.538 -0.0247 -0.6377  0.6646
 3676UDC     C740432   7.528   9.033  10.656 -0.4600 -0.2780  0.1748
 3676UDC     C840433   7.384   8.996  10.690  0.8134 -0.4207 -0.2170
 3676UDC     C940434   7.296   9.088  10.777  0.0379  0.0107  0.4485
 3676UDC    C1040435   7.332   9.099  10.930  0.1024 -0.1449  0.1579
 3676UDC    C1140436   7.389   8.965  10.975 -1.0621  0.0518  1.0218
 3677UDC     C140437  10.561   8.533  13.581 -0.8571  0.7880  0.9539
 3677UDC     C240438  10.646   8.627  13.666 -0.3727  0.6371  0.1230
 3677UDC     C340439  10.602   8.777  13.661 -0.0339  0.4869  0.2997
 3677UDC     C440440  10.684   8.864  13.558  0.1189  0.1289  0.1933
 3677UDC     C540441  10.614   8.989  13.510 -0.1846 -0.1851 -0.6482
 3677UDC     C640442  10.476   8.982  13.447  0.6930  0.0234  0.9827
 3677UDC     C740443  10.434   9.100  13.363  0.0952 -0.5105  0.5270
 3677UDC     C840444  10.546   9.146  13.271 -0.8996  0.0352 -0.4119
 3677UDC     C940445  10.502   9.260  13.180 -0.6333 -0.3310  1.2305
 3677UDC    C1040446  10.620   9.331  13.125 -0.9727  0.1851  0.3251
 3677UDC    C1140447  10.686   9.433  13.223  0.1271  1.0311 -0.5856
 3678UDC     C140448  19.306  12.895  15.805 -0.5935  0.5838  0.3003
 3678UDC     C240449  19.237  12.771  15.859  0.1152 -0.3170  0.0093
 3678UDC     C340450  19.257  12.767  16.011  0.3713  0.1018  0.3401
 3678UDC     C440451  19.148  12.686  16.084  0.7731 -0.0946  0.1573
 3678UDC     C540452  19.142  12.701  16.238 -0.1027 -0.1637  0.1028
 3678UDC     C640453  19.278  12.691  16.305  0.5203  0.5753  0.1514
 3678UDC     C740454  19.309  12.541  16.315  1.4276 -0.2506  0.0426
 3678UDC     C840455  19.216  12.448  16.403  0.9186  0.2738  0.1535
 3678UDC     C940456  19.215  12.483  16.551 -0.9455  0.4162 -0.1071
 3678UDC    C1040457  19.354  12.451  16.613  0.2735  0.3880  0.6045
 3678UDC    C1140458  19.397  12.299  16.603  0.2780 -1.4615 -0.6896
 3679UDC     C140459   5.237   7.824  10.494 -0.7220 -0.2635  0.0448
 3679UDC     C240460   5.200   7.921  10.610  0.2624 -1.3716 -0.1252
 3679UDC     C340461   5.283   7.887  10.735 -0.8621  1.3103 -0.0281
 3679UDC     C440462   5.292   8.006  10.839 -0.9572  0.0950  0.1420
 3679UDC     C540463   5.322   8.143  10.779  0.9026 -0.8958 -0.1932
 3679UDC     C640464   5.301   8.256  10.884 -0.7006 -0.4926  0.4406
 3679UDC     C740465   5.382   8.222  11.004  0.3846  0.4749 -2.1315
 3679UDC     C840466   5.536   8.197  10.988 -0.0381  0.1718 -0.0962
 3679UDC     C940467   5.594   8.115  11.104 -0.6836  0.9271 -0.1387
 3679UDC    C1040468   5.748   8.089  11.103 -0.7232 -0.5748 -1.7730
 3679UDC    C1140469   5.831   8.216  11.111  0.8982  0.5875  0.2849
 3680UDC     C140470   3.633   4.996   9.436  0.6320 -0.9978  0.1674
 3680UDC     C240471   3.652   5.153   9.452 -0.2838  0.7574  0.0921
 3680UDC     C340472   3.570   5.238   9.355 -0.1919  0.4568  0.2585
 3680UDC     C440473   3.442   5.170   9.284  0.4435  0.0207  0.6688
 3680UDC     C540474   3.360   5.281   9.206 -0.0052 -0.1440  0.1521
 3680UDC     C640475   3.212   5.283   9.244  0.3056  0.0793  0.0294
 3680UDC     C740476   3.145   5.347   9.364  0.0619  1.0786 -0.8864
 3680UDC     C840477   3.195   5.304   9.507  1.1193  1.2799  0.6950
 3680UDC     C940478   3.204   5.148   9.530 -0.8123  0.1996 -0.0017
 3680UDC    C1040479   3.071   5.080   9.551 -0.0448 -0.0856 -0.8499
 3680UDC    C1140480   3.022   5.141   9.688  0.5607  0.1597  0.9995
 3681UDC     C140481   1.814  15.271   0.156 -0.6849 -0.3310  0.0750
 3681UDC     C240482   1.680  15.348   0.150 -0.3093  0.4788  0.6617
 3681UDC     C340483   1.631  15.400   0.279 -0.1762 -0.0336  0.5051
 3681UDC     C440484   1.484  15.456   0.279 -0.2968  0.3557  0.0973
 3681UDC     C540485   1.395  15.357   0.203  0.1665  0.6294  0.3816
 3681UDC     C640486   1.249  15.376   0.234  0.9544  0.3012  0.7653
 3681UDC     C740487   1.203  15.378   0.378 -0.0820  0.7915 -0.6160
 3681UDC     C840488   1.051  15.373   0.400  0.8424  0.4323  0.5274
 3681UDC     C940489   1.014  15.300   0.526  0.2992 -0.4644  0.3568
 3681UDC    C1040490   0.867  15.302   0.579 -0.5406 -0.3572 -0.3532
 3681UDC    C1140491   0.785  15.435   0.571  0.7693  0.9483  0.3109
 3682UDC     C140492  13.893   1.598   5.094  0.5459 -0.2541  0.0955
 3682UDC     C240493  13.743   1.561   5.117  0.0566  1.3366 -0.0668
 3682UDC     C340494  13.710   1.447   5.212  0.4711  0.3354 -0.6011
 3682UDC     C440495  13.565   1.445   5.266 -0.8728 -0.8589  0.3980
 3682UDC     C540496  13.541   1.306   5.336 -0.1287 -0.1401 -0.1885
 3682UDC     C640497  13.389   1.278   5.338 -0.3370 -0.1941 -0.3570
 3682UDC     C740498  13.315   1.380   5.427 -0.6926 -0.3838 -0.1708
 3682UDC     C840499  13.160   1.365   5.422 -0.2647  0.9304 -0.1304
 3682UDC     C940500  13.089   1.385   5.295 -0.0210 -0.3999  0.6142
 3682UDC    C1040501  12.955   1.308   5.288  0.0231  0.9440 -0.2411
 3682UDC    C1140502  12.927   1.226   5.159 -0.4766 -0.9594  0.9969
 3683UDC     C140503   8.540   8.897   2.394  0.4557 -0.7102 -0.3394
 3683UDC     C240504   8.524   9.020   2.301  0.1095 -0.7953 -1.3062
 3683UDC     C340505   8.503   9.165   2.360 -1.2240  0.1044 -0.3009
 3683UDC     C440506   8.596   9.248   2.270  0.4870  0.4895  0.7210
 3683UDC     C540507   8.552   9.397   2.256 -0.3369 -0.0063  0.4923
 3683UDC     C640508   8.579   9.463   2.386 -0.7601  1.4712  0.3980
 3683UDC     C740509   8.536   9.611   2.403  0.7098  0.8158  0.2523
 3683UDC     C840510   8.639   9.730   2.407  1.0636 -0.3970  0.8442
 3683UDC     C940511   8.577   9.874   2.426 -0.6429 -0.3779 -0.0589
 3683UDC    C1040512   8.673   9.982   2.463  0.5834 -1.1191 -0.1020
 3683UDC    C1140513   8.597  10.113   2.499  0.0155  0.9736 -0.3760
 3684UDC     C140514   9.161  12.658  11.664 -0.4273 -0.5429 -0.8139
 3684UDC     C240515   9.009  12.649  11.632 -0.4771  0.5213  0.8692
 3684UDC     C340516   8.915  12.750  11.695 -0.1354 -0.3457 -0.4392
 3684UDC     C440517   8.774  12.759  11.629 -0.9453  0.1202  0.0809
 3684UDC     C540518   8.683  12.812  11.736  1.1037 -1.3695 -1.6642
 3684UDC     C640519   8.534  12.762  11.721 -0.5310 -0.1839 -0.8052
 3684UDC     C740520   8.472  12.764  11.577 -0.3708  1.4010 -0.1653
 3684UDC     C840521   8.314  12.790  11.598 -0.6930  0.1278  0.1726
 3684UDC     C940522   8.250  12.646  11.625 -0.1921  0.3541 -0.8601
 3684UDC    C1040523   8.119  12.630  11.702  0.4595 -0.5662 -0.2755
 3684UDC    C1140524   8.084  12.484  11.736 -0.8421  0.6081 -0.8359
 3685UDC     C140525  11.282  14.792   5.054 -0.5518 -0.4222 -0.2381
 3685UDC     C240526  11.389  14.728   5.142  0.5701  0.1509 -1.0401
 3685UDC     C340527  11.361  14.576   5.166 -0.5012  0.0603 -0.6151
 3685UDC     C440528  11.341  14.480   5.048  0.2927 -0.3183  0.3340
 3685UDC     C540529  11.228  14.377   5.059  0.4121  0.4497  0.6457
 3685UDC     C640530  11.249  14.277   5.177  0.5233  0.8748  0.6560
 3685UDC     C740531  11.115  14.215   5.203  0.0563  0.5751  0.5342
 3685UDC     C840532  11.098  14.104   5.302  0.0618 -0.0011  0.5567
 3685UDC     C940533  10.986  14.004   5.262 -0.0588  1.0199 -0.3921
 3685UDC    C1040534  10.972  13.888   5.357 -0.2990 -0.6650 -0.5560
 3685UDC    C1140535  10.936  13.743   5.321  0.5403 -0.9594  0.2264
 3686UDC     C140536   3.966   2.377   5.002 -0.0100  0.1183 -0.8151
 3686UDC     C240537   3.916   2.491   5.102 -0.0695 -0.1997  0.2295
 3686UDC     C340538   3.955   2.485   5.251  0.6510 -0.4412 -0.2737
 3686UDC     C440539   3.870   2.576   5.343  0.2278  0.1166  0.5564
 3686UDC     C540540   3.890   2.722   5.311 -1.0004  0.4909  0.3788
 3686UDC     C640541   3.998   2.771   5.400  0.2499  0.3958 -0.2065
 3686UDC     C740542   4.044   2.916   5.411 -0.3873  1.5840 -0.5698
 3686UDC     C840543   4.167   2.940   5.318  0.2716 -0.8546 -0.3695
 3686UDC     C940544   4.282   3.015   5.383 -0.1941 -0.3387  0.4005
 3686UDC    C1040545   4.395   3.034   5.288 -0.5904  0.6271  0.3052
 3686UDC    C1140546   4.476   3.150   5.347 -0.0309 -0.4911  0.5490
 3687UDC     C140547   7.171  14.419  14.448 -0.3546 -0.3269  0.2543
 3687UDC     C240548   7.296  14.356  14.514 -1.3766 -0.3300 -0.1481
 3687UDC     C340549   7.253  14.230  14.590 -1.3898  0.4452  0.3098
 3687UDC     C440550   7.123  14.237  14.670  0.6317  0.2117 -0.5188
 3687UDC     C540551   7.092  14.098  14.727 -0.2096 -0.4624  0.6852
 3687UDC     C640552   7.000  14.117  14.850 -0.0344  1.0269  0.3597
 3687UDC     C740553   6.986  13.980  14.916  0.2200 -0.1487 -0.0652
 3687UDC     C840554   6.884  13.968  15.029  0.0126  0.1731  0.6606
 3687UDC     C940555   6.886  13.836  15.102 -0.3322 -0.3590 -0.2539
 3687UDC    C1040556   6.936  13.709  15.053  1.1562  0.2388  0.7008
 3687UDC    C1140557   6.905  13.582  15.128 -0.1935 -0.5647  0.2779
 3688UDC     C140558   8.182  13.808   7.140  1.1181 -0.2734  0.2771
 3688UDC     C240559   8.120  13.925   7.058 -0.4457  0.0700  0.4927
 3688UDC     C340560   7.989  13.856   7.005 -0.4336 -0.7271  0.7331
 3688UDC     C440561   7.906  13.929   6.889  0.1287 -0.9303 -1.7200
 3688UDC     C540562   7.787  13.832   6.849 -0.0648 -0.0428 -0.1946
 3688UDC     C640563   7.663  13.890   6.775  0.3478  0.2645  0.2495
 3688UDC     C740564   7.622  13.803   6.651 -0.5308  0.5173 -0.7307
 3688UDC     C840565   7.728  13.811   6.534 -0.2414  0.1319  0.3879
 3688UDC     C940566   7.791  13.946   6.501 -1.0720 -0.0453 -0.1676
 3688UDC    C1040567   7.723  14.029   6.392  0.6075 -0.3565 -0.4991
 3688UDC    C1140568   7.750  14.185   6.380 -0.0011 -0.0004  0.3564
 3689UDC     C140569   9.623   0.111  12.484 -0.1112  1.0236  0.3531
 3689UDC     C240570   9.712   0.060  12.591 -0.5824  0.4797 -0.0553
 3689UDC     C340571   9.864   0.029  12.567  0.8827 -0.2414  0.3158
 3689UDC     C440572   9.937  -0.081  12.648 -0.5929 -0.2759 -0.4414
 3689UDC     C540573  10.087  -0.107  12.608 -0.3683 -1.4678  0.0630
 3689UDC     C640574  10.167   0.011  12.662 -0.4104  0.1948 -0.1979
 3689UDC     C740575  10.189   0.000  12.816 -0.4365 -0.3150 -0.3599
 3689UDC     C840576  10.287   0.106  12.878  0.4969 -0.3351  1.2440
 3689UDC     C940577  10.291   0.086  13.030 -0.0435  1.0730 -0.7551
 3689UDC    C1040578  10.297   0.217  13.113  0.1870  0.5900 -0.1790
 3689UDC    C1140579  10.421   0.309  13.092  1.0560  0.2814 -0.1689
 3690UDC     C140580  17.325   0.661  12.111  0.2851  0.3561  0.4216
 3690UDC     C240581  17.207   0.668  12.006  0.0446 -0.0504  0.8469
 3690UDC     C340582  17.110   0.548  12.002  1.0655 -0.0062  0.4915
 3690UDC     C440583  17.013   0.519  11.886  1.2271 -0.0079 -0.5639
 3690UDC     C540584  16.905   0.415  11.916 -1.0779  0.0293  0.1064
 3690UDC     C640585  16.835   0.412  12.051 -0.5390 -0.3430  0.7407
 3690UDC     C740586  16.710   0.312  12.051 -0.8116  0.7044 -0.6902
 3690UDC     C840587  16.592   0.387  12.111 -0.0134 -0.5320 -0.8975
 3690UDC     C940588  16.452   0.345  12.150  0.0623 -0.3353 -0.0986
 3690UDC    C1040589  16.370   0.456  12.223  0.4234 -0.6253 -0.3118
 3690UDC    C1140590  16.234   0.381  12.220  0.1759 -0.2117 -0.0299
 3691UDC     C140591  14.882  10.423  13.489 -0.0166 -0.9647  0.4350
 3691UDC     C240592  14.912  10.523  13.598 -0.0408 -0.4793 -1.2193
 3691UDC     C340593  15.060  10.514  13.623  0.0328  0.2701  0.4034
 3691UDC     C440594  15.103  10.563  13.760 -0.5388  0.0879 -0.3249
 3691UDC     C540595  15.081  10.718  13.780 -0.3965  0.2499 -0.1967
 3691UDC     C640596  15.187  10.789  13.697  0.9664 -0.4074  0.0268
 3691UDC     C740597  15.336  10.761  13.733  0.3509 -0.7219 -0.1230
 3691UDC     C840598  15.451  10.846  13.666 -0.0966  0.8804 -0.1349
 3691UDC     C940599  15.586  10.772  13.680  0.3323 -0.7522  0.4204
 3691UDC    C1040600  15.699  10.854  13.616 -1.1973 -0.8418  0.0228
 3691UDC    C1140601  15.696  10.853  13.467 -0.2727 -0.8160  0.7905
 3692UDC     C140602   1.753   9.509  18.066 -0.7190 -0.8026 -0.5468
 3692UDC     C240603   1.815   9.615  17.963  0.3977  0.1909 -0.6199
 3692UDC     C340604   1.728   9.747  17.984 -0.5240 -0.2191 -0.0372
 3692UDC     C440605   1.791   9.873  17.908 -0.0912  1.3088 -0.0672
 3692UDC     C540606   1.805   9.823  17.764  0.9111  0.5984 -0.4852
 3692UDC     C640607   1.871   9.918  17.664 -0.5766 -0.3866  0.5354
 3692UDC     C740608   1.772  10.011  17.587  0.0517 -0.1979 -0.2401
 3692UDC     C840609   1.696   9.930  17.476 -1.2736  0.7214 -0.4917
 3692UDC     C940610   1.609  10.023  17.385  0.2880 -0.1804 -0.4532
 3692UDC    C1040611   1.544   9.948  17.266 -1.0316  0.0543  0.7304
 3692UDC    C1140612   1.622   9.896  17.141  0.4682 -1.1641  0.2196
 3693UDC     C140613   8.091  19.369  14.148  0.6483  0.0042 -0.6575
 3693UDC     C240614   8.192  19.381  14.035 -0.6008  0.2891  1.1117
 3693UDC     C340615   8.251  19.244  13.982 -0.1672  0.4567 -0.5586
 3693UDC     C440616   8.392  19.261  13.916 -0.0132 -0.3911 -0.8283
 3693UDC     C540617   8.365  19.269  13.773  0.5853 -0.8506  0.2915
 3693UDC     C640618   8.501  19.275  13.698  0.4538  0.4650 -0.5682
 3693UDC     C740619   8.542  19.130  13.672 -0.5227 -0.9192  0.2083
 3693UDC     C840620   8.696  19.123  13.635 -0.4714 -0.4181  0.4989
 3693UDC     C940621   8.745  19.220  13.522 -0.9348 -0.4486  0.2235
 3693UDC    C1040622   8.695  19.153  13.390 -0.8411  0.2074  0.1875
 3693UDC    C1140623   8.737  19.223  13.259 -0.8532  0.1188  0.5828
 3694UDC     C140624   1.834   5.663  12.539  0.9351  0.5447  0.4099
 3694UDC     C240625   1.692   5.607  12.499  0.5537  0.0082  0.2653
 3694UDC     C340626   1.609   5.525  12.604 -0.4274  0.2985  0.2336
 3694UDC     C440627   1.506   5.415  12.559 -0.7795 -0.6451  1.2828
 3694UDC     C540628   1.405   5.374  12.665 -0.2054  0.0148  0.5610
 3694UDC     C640629   1.486   5.334  12.789 -0.2870  0.0597  0.4735
 3694UDC     C740630   1.401   5.272  12.901  0.4666 -1.2616  0.0104
 3694UDC     C840631   1.392   5.376  13.015 -0.4444  0.5053 -0.1422
 3694UDC     C940632   1.339   5.331  13.152  0.3094  1.1670  0.2741
 3694UDC    C1040633   1.192   5.270  13.156  0.6581 -0.4112  1.2922
 3694UDC    C1140634   1.130   5.252  13.297 -0.5163 -1.0495  0.0552
 3695UDC     C140635  13.578   6.847   4.296 -0.0414 -0.6090  0.2562
 3695UDC     C240636  13.728   6.860   4.303  0.3924  1.3953  0.0910
 3695UDC     C340637  13.793   6.993   4.279 -0.1364  0.5171 -0.9600
 3695UDC     C440638  13.950   6.997   4.300  0.9824 -0.8573 -0.0155
 3695UDC     C540639  14.022   6.915   4.191 -0.2601 -0.9301 -1.3774
 3695UDC     C640640  14.166   6.881   4.220 -0.8757 -0.7820 -0.1975
 3695UDC     C740641  14.227   6.761   4.143  0.0400 -0.8529 -0.6264
 3695UDC     C840642  14.211   6.619   4.197  0.5170  0.3726  0.3435
 3695UDC     C940643  14.272   6.499   4.123  0.1204 -0.3879  0.9186
 3695UDC    C1040644  14.276   6.377   4.208  0.2408  0.5739 -0.6829
 3695UDC    C1140645  14.339   6.276   4.116 -1.3823 -0.7096 -0.5570
 3696UDC     C140646  18.899   0.588   9.194 -0.0106  1.0414  0.5717
 3696UDC     C240647  18.753   0.616   9.163 -0.4043 -0.3299 -0.2156
 3696UDC     C340648  18.730   0.732   9.062 -0.2320 -0.0155 -0.8024
 3696UDC     C440649  18.801   0.860   9.106 -0.0959 -0.8080 -0.6203
 3696UDC     C540650  18.763   0.990   9.030 -0.7804  0.4210 -0.3758
 3696UDC     C640651  18.624   1.045   9.057  1.3307  1.8683 -0.1321
 3696UDC     C740652  18.542   1.120   8.946 -0.1914 -0.0514 -0.7742
 3696UDC     C840653  18.479   1.030   8.837  0.2777 -0.4602  0.6971
 3696UDC     C940654  18.390   1.116   8.735 -0.4545 -0.2009  0.5331
 3696UDC    C1040655  18.378   1.062   8.586  0.0844  0.0132 -1.8847
 3696UDC    C1140656  18.325   0.919   8.573 -0.2858 -0.4090  0.4107
 3697UDC     C140657  10.258  15.471   9.542  0.1955 -0.5804 -0.6994
 3697UDC     C240658  10.145  15.511   9.445  0.5858  0.2846 -0.6091
 3697UDC     C340659  10.099  15.657   9.457 -0.5649  0.1156 -0.8353
 3697UDC     C440660  10.169  15.729   9.574 -0.2786  0.3980  0.6294
 3697UDC     C540661  10.139  15.886   9.559  0.0565  0.2735  0.5315
 3697UDC     C640662  10.261  15.949   9.614 -0.2535  0.0885  0.7255
 3697UDC     C740663  10.380  15.920   9.516  0.2230 -0.3541  0.4002
 3697UDC     C840664  10.517  15.970   9.545  0.3446  0.0928 -0.5315
 3697UDC     C940665  10.535  16.108   9.473  0.6470 -0.7324 -0.3339
 3697UDC    C1040666  10.523  16.083   9.323  0.4009 -0.4326  0.2679
 3697UDC    C1140667  10.652  16.023   9.273 -0.2650 -0.6559  0.4822
 3698UDC     C140668   6.986  14.503   9.884 -0.6475  0.1169  0.3562
 3698UDC     C240669   7.059  14.434   9.771  0.7959  0.6723 -0.1179
 3698UDC     C340670   6.980  14.417   9.642  0.3546 -0.6158  0.7399
 3698UDC     C440671   7.074  14.385   9.527 -0.1544  0.5290 -0.6222
 3698UDC     C540672   7.006  14.389   9.392  0.6248  0.7148 -0.2400
 3698UDC     C640673   6.942  14.521   9.337 -0.1296  0.5832 -0.0518
 3698UDC     C740674   7.014  14.654   9.355 -0.4743 -0.7997  0.0535
 3698UDC     C840675   6.919  14.780   9.324 -1.1066  0.4467 -0.3104
 3698UDC     C940676   6.850  14.788   9.185  0.3978  1.8266 -0.7923
 3698UDC    C1040677   6.745  14.898   9.197  0.6179 -0.0854  0.4953
 3698UDC    C1140678   6.648  14.909   9.070 -0.6171 -1.2793  0.0502
 3699UDC     C140679  11.008  10.962   6.007  1.1129  0.4645 -0.4871
 3699UDC     C240680  10.954  11.077   5.926 -0.8574 -0.1965  0.0626
 3699UDC     C340681  10.919  11.028   5.779  0.0559 -0.0622  0.2422
 3699UDC     C440682  10.952  11.111   5.659  0.1385 -0.4220 -0.4943
 3699UDC     C540683  10.942  11.016   5.535  0.2678  0.0725  1.4803
 3699UDC     C640684  11.071  10.932   5.516 -0.5739 -0.6922  0.9543
 3699UDC     C740685  11.109  10.879   5.368  0.3993  0.6191  0.3800
 3699UDC     C840686  11.207  10.758   5.387  0.7040  0.3988  0.9582
 3699UDC     C940687  11.203  10.662   5.273 -0.5888  0.2808 -0.2424
 3699UDC    C1040688  11.316  10.549   5.274  1.1364  1.0688 -1.0253
 3699UDC    C1140689  11.279  10.438   5.179  0.5589 -0.3666  0.5558
 3700UDC     C140690   5.444  16.270  18.920 -0.1284 -0.0038 -0.9617
 3700UDC     C240691   5.344  16.156  18.954 -0.1361 -0.5128  0.1322
 3700UDC     C340692   5.236  16.135  18.847 -0.2507  0.0382 -0.3879
 3700UDC     C440693   5.118  16.057  18.899  0.3655  0.7353 -0.3697
 3700UDC     C540694   5.147  15.910  18.942  0.0445 -0.7199  0.0026
 3700UDC     C640695   5.114  15.795  18.844 -0.4392  0.6007  0.2729
 3700UDC     C740696   5.000  15.703  18.888  0.1152 -0.3130  0.7712
 3700UDC     C840697   4.894  15.750  18.995 -0.4453  0.8541  0.3432
 3700UDC     C940698   4.789  15.645  19.025 -0.0837 -0.1591 -0.5541
 3700UDC    C1040699   4.802  15.572  19.166 -0.5314 -0.3966 -0.1758
 3700UDC    C1140700   4.941  15.515  19.203 -0.6110  0.5496  0.7425
 3701UDC     C140701  11.375  17.822   3.998  0.1033 -0.0457 -0.6220
 3701UDC     C240702  11.372  17.835   3.845  0.6421  0.2914  0.0717
 3701UDC     C340703  11.237  17.771   3.794 -0.2706 -0.4812  0.4123
 3701UDC     C440704  11.229  17.723   3.639  0.4882  0.7043 -0.0852
 3701UDC     C540705  11.087  17.666   3.605  0.2610  0.8237 -0.2753
 3701UDC     C640706  11.036  17.704   3.467 -0.1491  0.5545 -0.5098
 3701UDC     C740707  10.906  17.631   3.439  0.1766 -0.0647 -0.5639
 3701UDC     C840708  10.835  17.630   3.295  0.3770 -0.3767 -0.6312
 3701UDC     C940709  10.735  17.517   3.255 -0.1251 -0.5939 -0.0399
 3701UDC    C1040710  10.710  17.513   3.104 -0.2796  0.5956  0.2644
 3701UDC    C1140711  10.633  17.383   3.075  0.2738  0.6887  0.2429
 3702UDC     C140712  11.904   9.416   8.750 -0.2687 -0.2550  0.9029
 3702UDC     C240713  11.972   9.471   8.874  0.6206 -0.6409  0.2861
 3702UDC     C340714  12.094   9.563   8.849 -0.1208  0.6168 -0.4466
 3702UDC     C440715  12.091   9.631   8.713  0.8266  0.3792  0.1252
 3702UDC     C540716  12.040   9.773   8.702  0.2427 -0.9323  0.7937
 3702UDC     C640717  12.108   9.867   8.604 -0.4142 -0.2954  0.8971
 3702UDC     C740718  12.036  10.003   8.577 -0.1010 -0.0216 -0.4442
 3702UDC     C840719  12.111  10.101   8.483  0.7837  0.3310  0.0201
 3702UDC     C940720  12.020  10.181   8.401  0.2789  0.3447 -0.1179
 3702UDC    C1040721  12.103  10.305   8.351  0.3238 -1.1214  0.4177
 3702UDC    C1140722  12.042  10.443   8.321  0.1935  0.2584  0.8830
 3703UDC     C140723   1.994  18.715  11.449 -0.4667 -0.7102 -0.5682
 3703UDC     C240724   2.123  18.795  11.448 -1.3790  0.4516 -0.5334
 3703UDC     C340725   2.206  18.749  11.576 -1.0291  0.0883 -0.2876
 3703UDC     C440726   2.162  18.604  11.607  0.3954 -0.3126 -0.7376
 3703UDC     C540727   2.227  18.571  11.742  0.2616  0.1853  0.5794
 3703UDC     C640728   2.200  18.447  11.825  0.3863  0.2177 -0.9067
 3703UDC     C740729   2.315  18.417  11.918 -0.6605  1.0512 -0.0112
 3703UDC     C840730   2.450  18.406  11.840 -0.1539 -0.9789 -0.4554
 3703UDC     C940731   2.535  18.296  11.908 -0.0933  0.8832  0.1907
 3703UDC    C1040732   2.488  18.153  11.889  0.7929  0.7838 -0.9606
 3703UDC    C1140733   2.546  18.062  12.003  0.0865 -0.6867  0.0592
 3704UDC     C140734   1.332  18.043   9.137 -0.3576 -1.8414  0.7201
 3704UDC     C240735   1.225  17.941   9.165  0.0642  0.1334  0.6278
 3704UDC     C340736   1.137  17.990   9.279 -0.9655  0.3650 -0.1466
 3704UDC     C440737   1.024  17.887   9.302  0.1142 -0.2771  0.0643
 3704UDC     C540738   0.940  17.914   9.427  0.5802  0.9438  0.5236
 3704UDC     C640739   0.896  18.065   9.435 -0.4097  0.6451  0.1862
 3704UDC     C740740   0.798  18.080   9.313  0.7120 -1.0853 -1.4446
 3704UDC     C840741   0.766  18.230   9.271  0.2362 -0.1862  1.1143
 3704UDC     C940742   0.877  18.325   9.211  0.3835 -0.3126 -0.2640
 3704UDC    C1040743   0.950  18.258   9.085  0.2563 -0.8877  0.9596
 3704UDC    C1140744   1.077  18.340   9.034 -0.5324 -0.9609 -0.2396
 3705UDC     C140745   5.134  13.846  14.186  0.6925 -1.2485 -0.6926
 3705UDC     C240746   5.108  13.846  14.337  0.5087  1.0659 -0.0839
 3705UDC     C340747   5.235  13.801  14.420  0.9998 -0.6949 -0.2582
 3705UDC     C440748   5.365  13.851  14.349  1.0006 -0.5459 -0.3201
 3705UDC     C540749   5.505  13.838  14.416 -0.4705 -0.8257  1.0762
 3705UDC     C640750   5.566  13.987  14.414 -0.2909  0.9505 -0.3422
 3705UDC     C740751   5.517  14.085  14.521 -0.3289  1.1970  0.8427
 3705UDC     C840752   5.551  14.035  14.660  0.2219 -0.0125 -0.0891
 3705UDC     C940753   5.535  14.150  14.762 -0.0176  0.4202  0.4519
 3705UDC    C1040754   5.629  14.267  14.720 -0.9792 -1.0827  0.5958
 3705UDC    C1140755   5.602  14.402  14.794 -0.3417  0.4233 -0.5319
 3706UDC     C140756   8.575   9.046  15.904  1.0535  0.9957  0.1957
 3706UDC     C240757   8.715   9.120  15.888  0.3160  0.1212  0.2591
 3706UDC     C340758   8.690   9.269  15.870 -0.4395  1.1067  0.9652
 3706UDC     C440759   8.817   9.359  15.883  0.1696 -0.5774  0.5106
 3706UDC     C540760   8.785   9.507  15.893 -0.5869 -1.1148  0.2149
 3706UDC     C640761   8.894   9.616  15.914 -0.8687 -0.2499  0.9072
 3706UDC     C740762   8.841   9.737  15.986 -0.1931  0.2009 -0.4987
 3706UDC     C840763   8.715   9.790  15.914 -0.4061 -0.2779 -0.1839
 3706UDC     C940764   8.733   9.836  15.763  0.2728  0.2289 -0.4886
 3706UDC    C1040765   8.611   9.880  15.694  0.0162  0.1895 -0.1493
 3706UDC    C1140766   8.530   9.995  15.753  0.4240  0.6573  0.2489
 3707UDC     C140767  13.444  13.882   5.052 -0.3233  0.5407 -0.4675
 3707UDC     C240768  13.565  13.965   5.116  0.4700 -0.3129  0.3725
 3707UDC     C340769  13.519  14.100   5.165  0.5034 -0.2854 -0.4885
 3707UDC     C440770  13.648  14.185   5.172 -0.2149  0.7521  0.1899
 3707UDC     C540771  13.749  14.171   5.050  0.9539 -0.6424  0.2385
 3707UDC     C640772  13.851  14.285   5.046  0.5257  0.9945  0.1941
 3707UDC     C740773  13.930  14.276   4.918 -0.4917 -0.0276 -0.2010
 3707UDC     C840774  13.838  14.250   4.805 -0.3880  0.0492  0.8227
 3707UDC     C940775  13.938  14.257   4.682  0.5368 -0.4894 -0.0172
 3707UDC    C1040776  13.865  14.308   4.561 -0.8949  0.0986  0.6532
 3707UDC    C1140777  13.785  14.440   4.601  0.2328  0.6979  0.5529
 3708UDC     C140778  15.543   6.953  11.635  0.2194  0.2816  1.9994
 3708UDC     C240779  15.419   6.991  11.555 -0.1166 -0.4647  0.5311
 3708UDC     C340780  15.460   7.111  11.471 -1.0750 -0.1675 -0.4840
 3708UDC     C440781  15.588   7.087  11.384 -0.5690 -0.7387  0.8647
 3708UDC     C540782  15.662   7.218  11.333 -0.4160 -0.9756 -0.9591
 3708UDC     C640783  15.776   7.211  11.226  0.4627 -0.1986  0.0815
 3708UDC     C740784  15.863   7.334  11.188  0.5893  0.0531 -0.0186
 3708UDC     C840785  15.961   7.275  11.086 -0.0833 -0.0890 -0.1529
 3708UDC     C940786  16.088   7.246  11.166  0.3924  0.5360  0.1306
 3708UDC    C1040787  16.188   7.182  11.070  0.2082  0.0362  0.1584
 3708UDC    C1140788  16.307   7.104  11.122  0.6110 -0.9106 -0.1725
 3709UDC     C140789  16.799   5.186   3.162  0.3648  0.3923  0.4625
 3709UDC     C240790  16.713   5.219   3.044  0.9612 -0.8063 -0.0402
 3709UDC     C340791  16.762   5.110   2.958 -0.6219  0.8706  0.5558
 3709UDC     C440792  16.915   5.109   2.929  1.0205 -0.0284  0.6826
 3709UDC     C540793  16.958   4.977   2.860 -0.0148  0.2179  0.8988
 3709UDC     C640794  17.082   4.914   2.927  0.1713  1.2467 -0.2333
 3709UDC     C740795  17.122   4.768   2.886  0.1902 -0.1037 -0.9919
 3709UDC     C840796  17.166   4.698   3.009  0.4997  0.3801 -0.9461
 3709UDC     C940797  17.314   4.657   3.015 -0.1763 -0.5637 -0.4826
 3709UDC    C1040798  17.402   4.699   2.887 -0.4044  0.3903 -0.7932
 3709UDC    C1140799  17.552   4.697   2.924 -0.5130  1.2065  1.0447
 3710UDC     C140800  19.119  11.208  15.580 -0.7048  0.4567  0.4764
 3710UDC     C240801  19.077  11.273  15.454 -1.3550  1.1655  0.4896
 3710UDC     C340802  18.957  11.367  15.437 -0.1923  0.4188  1.1556
 3710UDC     C440803  18.975  11.457  15.312 -0.1575 -0.1595  0.2579
 3710UDC     C540804  18.957  11.393  15.172  0.2499 -0.9017  0.3819
 3710UDC     C640805  18.982  11.490  15.056  0.4970  0.0431 -0.6048
 3710UDC     C740806  19.004  11.431  14.922  0.7593 -0.0768  1.0412
 3710UDC     C840807  18.911  11.305  14.907 -0.1731 -0.8572 -0.3283
 3710UDC     C940808  18.785  11.334  14.821  0.6109  0.1385  0.1519
 3710UDC    C1040809  18.691  11.442  14.869 -0.3913  0.2078 -0.8695
 3710UDC    C1140810  18.595  11.490  14.755 -1.1933 -0.3682  0.5355
 3711UDC     C140811  18.407   5.734  10.131  0.4758  0.1958  0.4216
 3711UDC     C240812  18.346   5.590  10.118  0.5573 -0.6866 -0.1719
 3711UDC     C340813  18.430   5.501  10.031  0.7699 -0.1655  0.3709
 3711UDC     C440814  18.377   5.364   9.975 -0.9891 -0.4023 -0.7367
 3711UDC     C540815  18.268   5.397   9.872  0.6386  0.3197 -0.2966
 3711UDC     C640816  18.178   5.288   9.809 -0.7585  0.0548  0.4811
 3711UDC     C740817  18.086   5.344   9.701 -0.6902  0.3078  1.4088
 3711UDC     C840818  18.109   5.290   9.561  0.2396 -0.0300 -0.3115
 3711UDC     C940819  18.160   5.147   9.560 -0.3508  0.3521  0.8994
 3711UDC    C1040820  18.186   5.085   9.424 -0.1919 -0.4498  0.0140
 3711UDC    C1140821  18.276   5.158   9.327 -0.3634  0.0637  0.0571
 3712UDC     C140822  13.997   7.475  14.644  0.0956 -0.1374  0.1000
 3712UDC     C240823  14.009   7.347  14.561 -0.6942  0.9837 -0.6102
 3712UDC     C340824  14.096   7.366  14.432  0.6160  0.6630 -1.6410
 3712UDC     C440825  14.126   7.243  14.347 -0.4585  0.2809 -0.6185
 3712UDC     C540826  14.246   7.254  14.252 -0.7132 -0.3630 -0.3564
 3712UDC     C640827  14.265   7.136  14.143 -0.4240 -0.4096 -1.2019
 3712UDC     C740828  14.409   7.131  14.096 -0.2884 -0.3694  0.3855
 3712UDC     C840829  14.507   7.077  14.197  1.5500  0.7272  0.2088
 3712UDC     C940830  14.642   7.042  14.126  0.2509  0.7436 -0.1722
 3712UDC    C1040831  14.766   7.002  14.204  0.3923  0.6911  0.1318
 3712UDC    C1140832  14.771   6.994  14.361  0.3349 -0.2743  0.4228
 3713UDC     C140833  16.990  12.102   1.156  0.6504 -0.7009 -0.7576
 3713UDC     C240834  17.083  12.098   1.282  0.8281 -0.3755  0.1424
 3713UDC     C340835  17.211  12.187   1.284 -0.7019 -0.4860  0.1437
 3713UDC     C440836  17.272  12.193   1.429  0.7832 -0.2737 -0.7864
 3713UDC     C540837  17.343  12.065   1.479 -0.6400  0.1334  0.0308
 3713UDC     C640838  17.459  12.081   1.580 -0.4212 -0.1187 -0.0353
 3713UDC     C740839  17.524  11.953   1.637 -0.1047  1.0249 -0.7441
 3713UDC     C840840  17.430  11.882   1.743 -0.3729 -1.0854 -0.3593
 3713UDC     C940841  17.484  11.758   1.814  1.0892  0.6546 -0.1436
 3713UDC    C1040842  17.471  11.624   1.733  0.8105  0.0386 -0.1095
 3713UDC    C1140843  17.542  11.509   1.804  0.7250 -0.5176  0.3715
 3714UDC     C140844  12.878   7.803   4.459 -0.2645 -0.5480  1.4928
 3714UDC     C240845  12.887   7.938   4.533 -0.8678 -0.0720 -0.3194
 3714UDC     C340846  12.789   7.932   4.644  0.4081 -0.1779  1.3956
 3714UDC     C440847  12.766   8.065   4.722  1.2645 -0.6986 -0.0307
 3714UDC     C540848  12.903   8.109   4.784  0.8225  0.5973 -0.2005
 3714UDC     C640849  12.893   8.224   4.889 -0.7438 -0.1763 -0.2786
 3714UDC     C740850  12.793   8.218   5.000  0.6678 -0.1743 -0.0873
 3714UDC     C840851  12.831   8.128   5.125 -0.1370 -0.0538 -1.3256
 3714UDC     C940852  12.763   8.137   5.267  0.2586  0.8578  0.2417
 3714UDC    C1040853  12.857   8.132   5.388  0.1551 -0.6295 -0.9019
 3714UDC    C1140854  12.920   7.996   5.391  0.5796 -0.5371  0.2710
 3715UDC     C140855  12.153   7.111   5.413 -0.5522 -0.1658 -0.5907
 3715UDC     C240856  12.150   6.959   5.363 -0.3572 -1.0857  0.0162
 3715UDC     C340857  12.065   6.915   5.244  0.5913  0.5557 -0.3195
 3715UDC     C440858  11.918   6.930   5.297  0.5253 -0.3619  0.4473
 3715UDC     C540859  11.815   6.898   5.188 -1.0082  0.7981 -1.0897
 3715UDC     C640860  11.694   6.991   5.209  0.6442  0.9362 -0.0235
 3715UDC     C740861  11.611   6.952   5.330 -0.1993  0.5390  0.0976
 3715UDC     C840862  11.485   7.042   5.313  0.5359  0.4560 -0.2117
 3715UDC     C940863  11.402   7.028   5.183 -0.3855  0.6260 -0.2695
 3715UDC    C1040864  11.258   7.059   5.219  0.2593  0.3342  0.6202
 3715UDC    C1140865  11.152   6.997   5.121  0.5234  0.2137 -0.3260
 3716UDC     C140866  18.755   5.398   7.721 -0.5855 -0.7396 -0.4716
 3716UDC     C240867  18.776   5.392   7.570 -0.3644 -0.2104 -0.0174
 3716UDC     C340868  18.916   5.347   7.519 -0.3430 -0.4828 -0.2992
 3716UDC     C440869  18.960   5.202   7.540  1.1325  0.5317  0.4881
 3716UDC     C540870  19.069   5.187   7.436 -0.2628 -0.3948  0.2408
 3716UDC     C640871  19.186   5.285   7.459  0.1615  0.9086  0.3319
 3716UDC     C740872  19.275   5.268   7.329 -0.5212 -0.2806 -0.1840
 3716UDC     C840873  19.387   5.368   7.297 -0.3979 -0.6678  1.2751
 3716UDC     C940874  19.492   5.344   7.188 -0.0982  0.1817  0.4892
 3716UDC    C1040875  19.456   5.374   7.041  1.0969 -0.6385  0.8030
 3716UDC    C1140876  19.576   5.377   6.947  0.5148 -0.2432 -0.5911
 3717UDC     C140877   4.519   2.563   8.959 -0.0115 -0.6828  0.0344
 3717UDC     C240878   4.386   2.609   8.891  0.1168  0.9273 -0.6619
 3717UDC     C340879   4.261   2.638   8.979  0.5242  0.1592 -0.7756
 3717UDC     C440880   4.120   2.630   8.908 -0.7986  0.4398  0.0380
 3717UDC     C540881   4.011   2.571   8.993 -0.0030  0.3047 -0.6742
 3717UDC     C640882   3.872   2.623   8.953  0.0413 -0.0852  0.9175
 3717UDC     C740883   3.856   2.560   8.815 -1.3642 -0.2730 -0.6847
 3717UDC     C840884   3.734   2.601   8.736 -0.1411 -0.2464  0.3444
 3717UDC     C940885   3.753   2.605   8.584  0.0787 -0.3832  0.4153
 3717UDC    C1040886   3.624   2.555   8.506 -0.3818  0.4175 -0.2665
 3717UDC    C1140887   3.675   2.542   8.363 -0.6079  0.1203  0.3161
 3718UDC     C140888  19.051  16.838   7.323  0.4362 -0.4879 -0.1501
 3718UDC     C240889  19.195  16.814   7.373 -0.6647  0.1687 -0.1199
 3718UDC     C340890  19.228  16.858   7.524 -0.0798 -0.2678 -0.3299
 3718UDC     C440891  19.216  16.998   7.579  0.3445 -0.2454 -0.4712
 3718UDC     C540892  19.279  17.104   7.487 -0.7289  0.5327 -0.2758
 3718UDC     C640893  19.272  17.254   7.545  0.1663 -0.4872  0.1208
 3718UDC     C740894  19.346  17.267   7.673 -0.0459 -1.0379 -1.0093
 3718UDC     C840895  19.303  17.384   7.762 -0.4215 -0.8030  0.0867
 3718UDC     C940896  19.149  17.375   7.809 -0.8912 -0.4164  1.1158
 3718UDC    C1040897  19.115  17.500   7.899  0.1183 -0.5210  0.6550
 3718UDC    C1140898  19.107  17.635   7.812  1.1440  0.4712 -0.3237
 3719UDC     C140899   0.993  17.418   6.762 -0.0327  1.1040  0.3146
 3719UDC     C240900   0.937  17.324   6.651 -0.4557  0.1202 -0.7270
 3719UDC     C340901   0.928  17.173   6.697  0.0257  0.3517  0.2404
 3719UDC     C440902   0.811  17.128   6.779  1.3648 -0.0253 -0.0593
 3719UDC     C540903   0.817  17.129   6.930  0.4017  0.1623  1.1438
 3719UDC     C640904   0.680  17.117   6.994  0.7067 -0.1486 -0.4410
 3719UDC     C740905   0.587  17.236   6.993  0.4605 -0.4096  1.0559
 3719UDC     C840906   0.474  17.243   7.089  1.3161  0.7156 -0.5273
 3719UDC     C940907   0.476  17.381   7.155  1.0643  0.0951  0.5879
 3719UDC    C1040908   0.394  17.385   7.289 -0.1220  0.3700  0.4781
 3719UDC    C1140909   0.435  17.288   7.400 -0.9904 -0.1732 -0.1753
 3720UDC     C140910   0.155  12.205   6.327  0.1835  0.1228  0.4757
 3720UDC     C240911   0.287  12.129   6.362  0.3129 -0.3566  0.5367
 3720UDC     C340912   0.284  11.977   6.367 -0.1738  0.4249 -0.5247
 3720UDC     C440913   0.195  11.949   6.243  0.9199 -0.6735  0.2769
 3720UDC     C540914   0.090  11.848   6.264 -0.0749 -0.1363 -0.5355
 3720UDC     C640915   0.156  11.717   6.284 -0.4529  0.1022 -0.3489
 3720UDC     C740916   0.075  11.590   6.243  0.0028  0.1283  0.4540
 3720UDC     C840917   0.010  11.532   6.369 -0.5330 -0.0349  0.8674
 3720UDC     C940918  -0.067  11.610   6.481 -0.2399 -0.6884 -0.6495
 3720UDC    C1040919  -0.082  11.527   6.606 -0.1899 -0.0918  0.3077
 3720UDC    C1140920   0.057  11.496   6.668  0.7123 -0.0020  0.1401
 3721UDC     C140921   8.866  12.872   3.283  1.0735 -0.2037 -0.8033
 3721UDC     C240922   8.877  12.950   3.155  0.2938  0.4311 -0.4664
 3721UDC     C340923   9.012  12.976   3.087  0.5973  0.7174 -1.3686
 3721UDC     C440924   9.002  13.070   2.966  0.1645 -0.1766  0.2470
 3721UDC     C540925   8.914  13.019   2.849 -0.0355 -0.3089  0.4979
 3721UDC     C640926   8.904  13.127   2.738  0.5150  0.9721 -0.3021
 3721UDC     C740927   8.893  13.050   2.604 -0.6246 -0.5259 -0.1664
 3721UDC     C840928   9.010  12.970   2.548  0.0279 -0.1334  0.7751
 3721UDC     C940929   9.012  12.933   2.399 -1.0683 -0.0084 -0.9499
 3721UDC    C1040930   8.888  12.846   2.365 -0.2804  0.5822 -0.1520
 3721UDC    C1140931   8.851  12.850   2.215 -1.7932  0.3572  0.0701
 3722UDC     C140932  19.224   6.779   3.302 -0.4156 -0.5200  1.1247
 3722UDC     C240933  19.198   6.908   3.385  1.3218 -0.8539  0.1081
 3722UDC     C340934  19.057   6.928   3.456 -0.3637  0.0215  0.7656
 3722UDC     C440935  19.051   7.075   3.493 -0.4068 -0.3241 -0.2610
 3722UDC     C540936  18.916   7.139   3.518  0.6836  0.0223  0.2183
 3722UDC     C640937  18.921   7.297   3.507  0.3795 -0.5398 -0.0171
 3722UDC     C740938  18.835   7.378   3.605 -0.9359  0.4447  0.5570
 3722UDC     C840939  18.841   7.337   3.751 -0.4241 -0.3510 -0.7655
 3722UDC     C940940  18.978   7.351   3.820  0.5286 -0.9915 -0.2160
 3722UDC    C1040941  18.982   7.276   3.952 -0.1643 -0.5766 -0.1256
 3722UDC    C1140942  19.054   7.370   4.051  0.1204  0.0708  0.4428
 3723UDC     C140943  12.127  10.626  18.964  0.4260 -0.4101 -1.2308
 3723UDC     C240944  12.160  10.751  19.047  0.2785 -0.2366  0.6780
 3723UDC     C340945  12.303  10.807  19.036  0.1120  0.0796  0.9623
 3723UDC     C440946  12.368  10.924  19.112 -0.3493 -0.5617  0.8740
 3723UDC     C540947  12.406  10.896  19.265 -0.2598 -0.7502 -1.2469
 3723UDC     C640948  12.489  10.767  19.274  0.5231  0.5313 -0.8379
 3723UDC     C740949  12.644  10.783  19.274  0.2371  0.8914 -0.3852
 3723UDC     C840950  12.694  10.889  19.171 -0.4009 -0.5278 -0.5767
 3723UDC     C940951  12.840  10.874  19.133 -0.2919  0.1731 -0.1469
 3723UDC    C1040952  12.938  10.930  19.240  0.1392 -0.2351 -0.2572
 3723UDC    C1140953  13.081  10.961  19.194  0.6232 -0.3910  0.0347
 3724UDC     C140954  19.449  18.657   2.546 -0.2406 -0.3869  0.0884
 3724UDC     C240955  19.339  18.738   2.478  1.0469 -0.8537  0.3075
 3724UDC     C340956  19.364  18.881   2.441  0.1445 -0.7840  0.0963
 3724UDC     C440957  19.412  18.981   2.555 -0.1519 -0.1194 -0.0823
 3724UDC     C540958  19.411  19.122   2.486 -0.2475  0.6896 -0.7156
 3724UDC     C640959  19.529  19.189   2.551  0.4528  0.6851 -0.9687
 3724UDC     C740960  19.545  19.330   2.486 -0.4668 -1.3525 -0.6856
 3724UDC     C840961  19.426  19.420   2.505  0.3761  0.1043 -0.2633
 3724UDC     C940962  19.427  19.481   2.654  0.4169 -0.4806 -0.7735
 3724UDC    C1040963  19.549  19.563   2.687  0.1992 -0.4228 -1.2092
 3724UDC    C1140964  19.588  19.591   2.839 -0.1669 -0.7493  0.7471
 3725UDC     C140965   9.495  10.906   7.509 -0.8479 -0.2754 -0.6709
 3725UDC     C240966   9.493  10.877   7.663 -0.1671 -0.9355  0.8235
 3725UDC     C340967   9.622  10.947   7.720  1.1969  0.8850  0.6056
 3725UDC     C440968   9.649  10.916   7.866  0.3631  0.5833  0.2708
 3725UDC     C540969   9.669  10.769   7.898  0.5224 -0.2442  1.1603
 3725UDC     C640970   9.733  10.734   8.032 -0.2765 -0.4201  0.5110
 3725UDC     C740971   9.868  10.800   8.065 -0.3086 -0.7130  0.8542
 3725UDC     C840972   9.848  10.923   8.166  0.0731 -0.5487  0.6579
 3725UDC     C940973   9.830  10.892   8.315 -0.1404  0.4256 -0.2766
 3725UDC    C1040974   9.803  11.009   8.414  0.6443  0.4544 -1.5418
 3725UDC    C1140975   9.760  10.965   8.559  0.1433  0.2703  0.1091
 3726UDC     C140976  17.620  12.499  14.263  0.5436 -0.2229  0.4732
 3726UDC     C240977  17.605  12.609  14.366  0.1475 -1.4746  0.5976
 3726UDC     C340978  17.730  12.608  14.466 -0.1888  0.8680  0.6069
 3726UDC     C440979  17.872  12.588  14.411 -1.2743 -0.7340 -1.5353
 3726UDC     C540980  17.962  12.536  14.530  0.4495  0.6924  0.1348
 3726UDC     C640981  17.979  12.384  14.571  0.0539 -0.1155 -0.4231
 3726UDC     C740982  18.022  12.347  14.714 -0.4933 -0.1320  1.0078
 3726UDC     C840983  18.166  12.374  14.743 -0.0935 -0.0591 -0.5093
 3726UDC     C940984  18.227  12.332  14.874  0.5098  0.0549  0.6547
 3726UDC    C1040985  18.373  12.369  14.916 -0.3701  0.6767  0.1583
 3726UDC    C1140986  18.427  12.505  14.873  0.6113 -0.5452 -0.0852
 3727UDC     C140987  15.503   6.067  15.934 -0.3428  0.3129 -0.3574
 3727UDC     C240988  15.475   6.072  16.084  0.6939 -0.8087 -0.3848
 3727UDC     C340989  15.573   6.181  16.135 -1.3245 -0.1936  0.4672
 3727UDC     C440990  15.550   6.329  16.073 -0.2149  0.0863 -0.3431
 3727UDC     C540991  15.403   6.372  16.087  0.1799  1.1843  0.1897
 3727UDC     C640992  15.361   6.479  15.989 -0.3711 -0.4488  0.9524
 3727UDC     C740993  15.225   6.550  16.010 -0.0583 -0.0722  0.3622
 3727UDC     C840994  15.180   6.636  15.893  0.0188  0.7021  1.6711
 3727UDC     C940995  15.091   6.583  15.777  0.0093 -0.2459 -0.0526
 3727UDC    C1040996  15.022   6.697  15.687 -0.1446 -1.3651  0.4025
 3727UDC    C1140997  14.873   6.690  15.653 -0.0482 -0.1852  0.1711
 3728UDC     C140998  19.480   7.744  15.487 -0.0065  0.7417 -0.3519
 3728UDC     C240999  19.355   7.835  15.455 -0.1631 -0.6606  0.0410
 3728UDC     C341000  19.227   7.742  15.482  0.5861 -0.4585  1.0056
 3728UDC     C441001  19.107   7.814  15.405 -0.7250 -0.1747 -0.4444
 3728UDC     C541002  18.969   7.736  15.413 -0.6225 -0.7626  0.4395
 3728UDC     C641003  18.887   7.744  15.278 -0.8689 -0.4200 -0.3323
 3728UDC     C741004  18.875   7.896  15.236 -0.2378  0.6005  0.6628
 3728UDC     C841005  18.733   7.940  15.193  0.3859 -1.2660 -0.2432
 3728UDC     C941006  18.708   8.086  15.146  0.3217  0.0486 -0.3474
 3728UDC    C1041007  18.561   8.124  15.102  0.1443  0.8167 -0.0603
 3728UDC    C1141008  18.522   8.081  14.966 -0.0740 -0.7280  0.8476
 3729UDC     C141009  18.214  13.255   2.783  0.3383 -0.3680  0.4254
 3729UDC     C241010  18.271  13.383   2.736  0.4748 -0.2574  0.2961
 3729UDC     C341011  18.380  13.334   2.639 -0.0048 -0.3711 -0.9040
 3729UDC     C441012  18.495  13.268   2.711  1.8123  0.6260 -0.3930
 3729UDC     C541013  18.607  13.239   2.608 -0.4961 -0.4918 -1.1419
 3729UDC     C641014  18.745  13.170   2.658  0.5259 -0.6352 -0.7314
 3729UDC     C741015  18.882  13.214   2.604  0.3564  0.1938 -0.1164
 3729UDC     C841016  18.995  13.176   2.697 -0.7430 -0.5756  1.1231
 3729UDC     C941017  18.977  13.240   2.835  0.4436  0.9646 -0.2096
 3729UDC    C1041018  19.065  13.184   2.946 -0.6377 -0.7854  0.5297
 3729UDC    C1141019  19.091  13.302   3.041  0.4541 -0.1158  0.8412
 3730UDC     C141020  12.623  10.878   5.796  0.0478 -0.7481 -0.5950
 3730UDC     C241021  12.597  10.779   5.676 -0.2874  0.5256 -0.4335
 3730UDC     C341022  12.611  10.645   5.757 -0.0187  0.5423  0.2820
 3730UDC     C441023  12.587  10.526   5.660 -0.1849 -0.4460  0.2692
 3730UDC     C541024  12.450  10.473   5.629  0.7652 -0.9613 -1.3869
 3730UDC     C641025  12.442  10.352   5.546 -0.2229 -0.4233  0.0639
 3730UDC     C741026  12.541  10.332   5.426 -0.3989 -0.6596  1.1556
 3730UDC     C841027  12.517  10.210   5.339 -0.8294 -0.2951 -0.2728
 3730UDC     C941028  12.627  10.139   5.268  0.0787 -0.2514  1.9545
 3730UDC    C1041029  12.710  10.033   5.350 -0.6601  0.6068  0.1632
 3730UDC    C1141030  12.758   9.907   5.267  1.3139  0.2025  0.3393
 3731UDC     C141031  11.888  12.235  11.083  0.1985  0.3062  0.5252
 3731UDC     C241032  11.803  12.224  10.951  0.7922  0.0861  0.0629
 3731UDC     C341033  11.724  12.102  10.891  0.3298 -0.1202 -1.6579
 3731UDC     C441034  11.662  11.988  10.983 -0.1880 -0.3564  0.1916
 3731UDC     C541035  11.581  11.893  10.898  0.1400  0.1336  0.7069
 3731UDC     C641036  11.650  11.830  10.777  0.3135 -0.5957  0.8336
 3731UDC     C741037  11.563  11.773  10.665  1.3741  0.1226 -0.0495
 3731UDC     C841038  11.499  11.641  10.703  0.5886  0.9009 -0.6764
 3731UDC     C941039  11.439  11.587  10.576  0.0308  0.5819 -0.6831
 3731UDC    C1041040  11.345  11.458  10.592 -0.0591 -1.0174 -0.1897
 3731UDC    C1141041  11.263  11.435  10.465  0.5046 -0.5320 -0.9087
 3732UDC     C141042   1.734   0.405   6.861  0.5559  0.6694  0.1460
 3732UDC     C241043   1.872   0.375   6.797  1.4235  0.3698 -0.5091
 3732UDC     C341044   1.969   0.485   6.815 -0.2820 -0.7671  1.0467
 3732UDC     C441045   2.106   0.417   6.822 -1.0474 -0.2507 -0.1318
 3732UDC     C541046   2.234   0.489   6.874  0.8339 -0.2654 -0.6235
 3732UDC     C641047   2.257   0.622   6.807  0.2540 -0.7753  0.1688
 3732UDC     C741048   2.307   0.732   6.898 -1.1156 -0.4870 -0.4862
 3732UDC     C841049   2.461   0.733   6.923  0.8377  0.7145  0.1278
 3732UDC     C941050   2.559   0.766   6.805  0.5323  0.1897 -0.8860
 3732UDC    C1041051   2.510   0.857   6.690  1.1909  0.1981 -1.1750
 3732UDC    C1141052   2.447   0.993   6.712  0.5522 -1.1520  0.2459
 3733UDC     C141053  13.715  13.764  15.238  0.2613 -0.6418 -0.0285
 3733UDC     C241054  13.738  13.679  15.110  0.4181  0.5673 -0.0882
 3733UDC     C341055  13.834  13.563  15.157 -0.0802  0.0613 -0.5093
 3733UDC     C441056  13.872  13.453  15.057 -0.1241 -0.3443  0.0048
 3733UDC     C541057  13.932  13.329  15.113  0.0159 -0.3021 -0.2999
 3733UDC     C641058  14.038  13.286  15.016  0.2330 -0.1181 -1.1957
 3733UDC     C741059  14.172  13.264  15.093 -0.4459  0.7921 -0.3996
 3733UDC     C841060  14.306  13.258  15.009  1.1472  0.7869 -0.2040
 3733UDC     C941061  14.422  13.245  15.106 -0.5377  0.0401 -0.6057
 3733UDC    C1041062  14.566  13.280  15.053 -0.0899 -0.0332 -0.6306
 3733UDC    C1141063  14.611  13.182  14.935  1.2029 -0.5741  0.8090
 3734UDC     C141064   5.068  13.877   6.063  0.5770 -0.2652 -0.1562
 3734UDC     C241065   5.017  13.735   6.073  0.4548 -0.6722 -0.6664
 3734UDC     C341066   5.053  13.655   5.940 -0.4469 -1.4415  0.2714
 3734UDC     C441067   5.206  13.620   5.934  0.8947 -0.4384 -0.5299
 3734UDC     C541068   5.222  13.476   5.868  0.6019 -0.5263  0.2691
 3734UDC     C641069   5.161  13.357   5.943  0.5042 -0.4703  0.8527
 3734UDC     C741070   5.258  13.341   6.061  0.2742  0.4318  0.5467
 3734UDC     C841071   5.221  13.228   6.164  0.4404 -0.2065  0.4578
 3734UDC     C941072   5.233  13.089   6.098  0.7062 -0.2430 -0.0304
 3734UDC    C1041073   5.231  12.961   6.191 -0.2336  0.1791  0.2024
 3734UDC    C1141074   5.209  12.838   6.105  0.1492 -0.4266  0.4813
 3735UDC     C141075   0.725   5.428   8.926  0.4407 -0.4039 -0.0935
 3735UDC     C241076   0.703   5.375   8.784 -0.1188  1.1458 -0.1996
 3735UDC     C341077   0.801   5.261   8.734 -0.2184 -0.8122 -0.6786
 3735UDC     C441078   0.785   5.218   8.587 -0.2663 -0.5002  0.1961
 3735UDC     C541079   0.918   5.143   8.543 -0.1144 -0.6905 -0.7321
 3735UDC     C641080   1.038   5.226   8.498 -0.2389 -0.0392  0.2132
 3735UDC     C741081   1.149   5.120   8.491  0.2223 -0.4531 -0.7895
 3735UDC     C841082   1.289   5.191   8.495  1.3188 -0.0072 -0.5445
 3735UDC     C941083   1.408   5.099   8.504 -0.1987 -0.8847  0.9036
 3735UDC    C1041084   1.550   5.172   8.524  0.1037  0.7748 -0.2446
 3735UDC    C1141085   1.660   5.080   8.589 -0.5246  0.1086 -0.0299
 3736UDC     C141086   6.445  13.682   3.048 -0.5448 -0.2800  0.5491
 3736UDC     C241087   6.342  13.637   2.938  0.5125 -0.0335 -0.3374
 3736UDC     C341088   6.224  13.540   2.974  0.6340 -0.4374  0.8288
 3736UDC     C441089   6.235  13.390   2.962  0.4405  0.8048  0.0465
 3736UDC     C541090   6.293  13.342   2.831 -0.5525 -0.4727  0.8330
 3736UDC     C641091   6.195  13.327   2.705 -0.0794 -0.6903  0.5311
 3736UDC     C741092   6.256  13.321   2.565  0.3683 -0.9122  0.9941
 3736UDC     C841093   6.186  13.216   2.475  0.7654  0.0163  0.5582
 3736UDC     C941094   6.156  13.246   2.327  0.4621 -0.4907  0.9943
 3736UDC    C1041095   6.276  13.246   2.224 -0.0300 -0.6679  0.1899
 3736UDC    C1141096   6.410  13.309   2.282  0.2342 -1.4405 -0.0629
 3737UDC     C141097   5.209   3.607   6.128 -1.5075  0.4412  0.8897
 3737UDC     C241098   5.240   3.696   6.012 -0.0981 -0.3005  1.8210
 3737UDC     C341099   5.393   3.704   5.983 -0.4219  0.2165  0.2685
 3737UDC     C441100   5.428   3.840   5.927 -0.0864  0.4462  0.0461
 3737UDC     C541101   5.567   3.865   5.985  0.4266 -0.1116 -0.4149
 3737UDC     C641102   5.591   3.859   6.137  0.2547  1.3318 -0.5169
 3737UDC     C741103   5.730   3.907   6.179  0.0083  0.4359 -0.3179
 3737UDC     C841104   5.779   3.832   6.303  0.8843  0.0359 -0.5633
 3737UDC     C941105   5.925   3.876   6.345 -0.0358 -0.0363  0.5637
 3737UDC    C1041106   5.980   3.765   6.442 -0.8889  0.6558  0.6945
 3737UDC    C1141107   6.038   3.639   6.374 -0.8303  0.1719  0.3037
 3738UDC     C141108  15.763   6.183   7.117 -0.3521 -1.0562 -0.1335
 3738UDC     C241109  15.881   6.207   7.017  0.1559  0.7929  0.0111
 3738UDC     C341110  15.827   6.267   6.881  0.4639  0.0331 -0.4343
 3738UDC     C441111  15.717   6.190   6.815  0.9904 -0.3212  0.5364
 3738UDC     C541112  15.690   6.219   6.662 -0.0631  0.4074 -0.6826
 3738UDC     C641113  15.661   6.364   6.611  0.2734 -0.5805 -0.7748
 3738UDC     C741114  15.728   6.413   6.487  0.4539 -0.8741 -0.4947
 3738UDC     C841115  15.859   6.464   6.534 -0.0413 -0.9332  1.1705
 3738UDC     C941116  15.980   6.438   6.440  0.2761 -0.4152 -0.8250
 3738UDC    C1041117  15.974   6.298   6.384  1.5766  0.3266  0.5036
 3738UDC    C1141118  16.085   6.234   6.309  0.1999  0.3457 -0.3555
 3739UDC     C141119   6.180   9.751  19.258  0.4511  0.5454 -0.0691
 3739UDC     C241120   6.063   9.697  19.171  0.0696  1.0560  0.7078
 3739UDC     C341121   6.089   9.776  19.041 -0.4075  0.1255 -0.6356
 3739UDC     C441122   5.963   9.804  18.954 -0.9297 -0.8177 -0.7066
 3739UDC     C541123   5.934   9.708  18.834  0.9772 -0.3950 -0.6135
 3739UDC     C641124   6.044   9.692  18.727  0.3015 -1.0435  0.0301
 3739UDC     C741125   5.989   9.641  18.600  0.3167  0.9341  0.5757
 3739UDC     C841126   5.888   9.526  18.612 -0.5595 -1.3345 -0.8943
 3739UDC     C941127   5.881   9.449  18.483 -0.2233  0.5687  0.4943
 3739UDC    C1041128   5.735   9.394  18.474  0.2801 -0.8578 -0.4321
 3739UDC    C1141129   5.709   9.247  18.501 -0.1190  0.0780  0.2043
 3740UDC     C141130  19.093  17.824   5.934  0.0358 -0.6782  0.9866
 3740UDC     C241131  19.042  17.762   5.800  0.8251  0.2671  0.3467
 3740UDC     C341132  19.063  17.611   5.798 -0.0585 -1.0611 -0.7544
 3740UDC     C441133  19.116  17.553   5.665  1.1699 -0.0703  0.3932
 3740UDC     C541134  19.128  17.398   5.679 -0.5922 -1.0089 -0.3051
 3740UDC     C641135  19.278  17.351   5.708 -0.3224 -0.4690  0.3104
 3740UDC     C741136  19.303  17.230   5.619  0.2613  0.0704 -0.1997
 3740UDC     C841137  19.449  17.185   5.593 -0.0607  0.5022  0.5951
 3740UDC     C941138  19.452  17.061   5.492 -0.3059  0.2381 -1.0236
 3740UDC    C1041139  19.365  17.081   5.369  0.5452  0.1264 -0.0117
 3740UDC    C1141140  19.362  16.939   5.297 -0.9412 -0.9379 -0.3721
 3741UDC     C141141   2.964  14.194   1.268  0.2956  0.0516  1.0649
 3741UDC     C241142   2.839  14.208   1.361  0.3363 -0.4902 -0.1250
 3741UDC     C341143   2.875  14.248   1.503  0.2478  0.8094 -0.7508
 3741UDC     C441144   2.812  14.376   1.557 -0.2777 -0.6079 -0.1680
 3741UDC     C541145   2.827  14.399   1.706 -0.7698 -0.0173  0.8293
 3741UDC     C641146   2.967  14.465   1.721  0.0611  0.7944 -0.0378
 3741UDC     C741147   3.069  14.368   1.780  0.0575  0.2110 -0.2530
 3741UDC     C841148   3.042  14.323   1.929 -0.7330  0.1047  0.5019
 3741UDC     C941149   3.056  14.431   2.039 -0.2758  0.3024  0.1961
 3741UDC    C1041150   3.198  14.437   2.103  0.2378  0.3912  0.5497
 3741UDC    C1141151   3.268  14.572   2.102  0.1121  0.3047  0.4931
 3742UDC     C141152  11.346  19.775  10.989  0.2533  0.5907  0.2996
 3742UDC     C241153  11.255  19.668  11.047 -0.5962  0.4786  0.2614
 3742UDC     C341154  11.282  19.515  11.013 -0.1606  0.5398 -0.5697
 3742UDC     C441155  11.429  19.468  11.000  0.8048 -0.5479 -0.9615
 3742UDC     C541156  11.424  19.318  10.989  0.5648  0.1289 -1.1853
 3742UDC     C641157  11.368  19.278  10.857 -0.0856 -0.2025  0.9281
 3742UDC     C741158  11.418  19.335  10.726  0.1057  0.9588  0.1764
 3742UDC     C841159  11.387  19.240  10.605 -0.1572  0.8116 -0.1949
 3742UDC     C941160  11.237  19.234  10.578  0.0687  0.5991  0.6008
 3742UDC    C1041161  11.190  19.162  10.450 -0.5233 -0.1076  0.3995
 3742UDC    C1141162  11.219  19.231  10.312 -0.8524 -0.5141  0.1887
 3743UDC     C141163   1.653  19.008  18.128 -0.3181 -0.2632 -0.1895
 3743UDC     C241164   1.633  18.852  18.155  0.3177 -0.0310 -0.2327
 3743UDC     C341165   1.597  18.832  18.301  0.9589  0.0379 -0.1965
 3743UDC     C441166   1.536  18.694  18.322 -0.2116  0.9916 -0.0377
 3743UDC     C541167   1.567  18.644  18.468  0.0145  0.0849  0.3833
 3743UDC     C641168   1.474  18.707  18.572 -0.1897  0.0659  0.7060
 3743UDC     C741169   1.446  18.630  18.707 -0.7843 -0.5749 -0.0479
 3743UDC     C841170   1.348  18.703  18.798  0.1414 -0.0189  0.1363
 3743UDC     C941171   1.391  18.844  18.834  0.5700  0.1230  0.8269
 3743UDC    C1041172   1.508  18.851  18.936  0.8693  0.4279 -0.0530
 3743UDC    C1141173   1.609  18.959  18.914  0.0131  0.2002 -0.2859
 3744UDC     C141174   3.054   7.398  19.451 -0.2019 -0.9539  0.3324
 3744UDC     C241175   3.117   7.322  19.334 -0.3486  0.8763 -0.4304
 3744UDC     C341176   3.038   7.199  19.288 -0.7627  0.4601  0.0324
 3744UDC     C441177   2.931   7.207  19.192 -0.0547  0.0137  0.3700
 3744UDC     C541178   2.961   7.294  19.071 -0.4453 -0.8248 -0.5949
 3744UDC     C641179   2.854   7.265  18.978  0.0732  1.0324 -0.7041
 3744UDC     C741180   2.846   7.375  18.870  0.4495  0.5782  0.5302
 3744UDC     C841181   2.950   7.360  18.762 -0.0838 -0.0191 -0.0059
 3744UDC     C941182   2.906   7.436  18.632  0.0491  0.5898  0.2214
 3744UDC    C1041183   2.984   7.442  18.504  0.2667  0.0889 -0.1625
 3744UDC    C1141184   3.134   7.488  18.495 -0.4873  0.4605 -0.2989
 3745UDC     C141185  13.239  15.421  17.083 -0.4564 -0.6142  0.0380
 3745UDC     C241186  13.228  15.270  17.076  0.5033  0.0408  0.1311
 3745UDC     C341187  13.358  15.202  17.111 -0.0608  0.6733 -0.2539
 3745UDC     C441188  13.364  15.048  17.107 -0.4047  0.5625 -0.2784
 3745UDC     C541189  13.480  14.988  17.182  0.0638 -0.8416  0.1030
 3745UDC     C641190  13.612  15.023  17.118  0.5169 -0.2100  0.0687
 3745UDC     C741191  13.728  15.051  17.204 -0.7061 -0.7800 -0.1510
 3745UDC     C841192  13.849  15.091  17.112  0.1131 -0.0873  0.1026
 3745UDC     C941193  13.863  15.206  17.009 -0.5471  0.4591 -0.3111
 3745UDC    C1041194  13.984  15.201  16.910  0.1878  0.2890 -0.6333
 3745UDC    C1141195  14.009  15.345  16.849  0.1911  0.7312 -0.3456
 3746UDC     C141196  13.636  16.814  12.428  0.0404  0.1576 -0.6728
 3746UDC     C241197  13.660  16.663  12.426  0.0121 -0.2440 -0.3933
 3746UDC     C341198  13.604  16.604  12.300  0.0733 -0.5344  0.2087
 3746UDC     C441199  13.632  16.457  12.297 -0.5536 -0.0165 -0.0858
 3746UDC     C541200  13.543  16.382  12.204  0.8858  0.6261  0.0728
 3746UDC     C641201  13.547  16.437  12.057 -0.1940 -0.5890 -0.3572
 3746UDC     C741202  13.513  16.333  11.956 -1.2304 -0.6833  0.9056
 3746UDC     C841203  13.542  16.404  11.822 -0.6695  0.9405 -0.1331
 3746UDC     C941204  13.650  16.513  11.806 -0.1493  0.2403 -0.0938
 3746UDC    C1041205  13.795  16.462  11.782 -0.3317 -1.2935 -0.9773
 3746UDC    C1141206  13.856  16.363  11.879  0.6342  0.0700 -0.3238
 3747UDC     C141207   0.909  12.006  11.254 -1.1959 -0.0940 -0.3722
 3747UDC     C241208   0.941  12.112  11.143 -0.1947  0.3126  0.1547
 3747UDC     C341209   0.818  12.203  11.165  0.2171 -0.1188  0.8977
 3747UDC     C441210   0.701  12.114  11.128 -0.6704  0.8279 -0.8142
 3747UDC     C541211   0.570  12.184  11.130  0.7716  0.0886 -0.7288
 3747UDC     C641212   0.438  12.105  11.109  0.3977 -0.0136  1.3320
 3747UDC     C741213   0.402  12.030  11.231  0.6788  0.0487 -0.2523
 3747UDC     C841214   0.250  12.014  11.244 -0.6846 -1.1103  0.0572
 3747UDC     C941215   0.167  11.974  11.122  0.1954  0.1352 -0.9549
 3747UDC    C1041216   0.015  12.008  11.130  0.3803  0.3539 -0.3027
 3747UDC    C1141217  -0.058  11.942  11.250  0.5775  0.8161  0.0791
 3748UDC     C141218   2.069  11.270  10.194  0.4085  0.3468  0.5064
 3748UDC     C241219   2.156  11.245  10.071  0.0519 -0.2479 -0.1436
 3748UDC     C341220   2.247  11.363  10.022  0.8359 -0.2702 -0.8805
 3748UDC     C441221   2.347  11.324   9.909 -0.2647  0.3047  0.4691
 3748UDC     C541222   2.424  11.445   9.855 -0.0034  0.7550 -0.3979
 3748UDC     C641223   2.526  11.480   9.966  0.2814  0.2259  0.3409
 3748UDC     C741224   2.615  11.363  10.001  1.1763  0.1286  0.4480
 3748UDC     C841225   2.720  11.318   9.900 -0.4763 -0.0754 -0.3001
 3748UDC     C941226   2.813  11.224   9.983  0.5032 -1.7063 -0.2483
 3748UDC    C1041227   2.906  11.300  10.084  1.1067  0.2064 -0.6496
 3748UDC    C1141228   2.914  11.227  10.223  0.2986  0.7109 -0.5745
 3749UDC     C141229  16.245  16.368  10.384 -0.2314 -0.6124  0.2034
 3749UDC     C241230  16.262  16.500  10.453  0.5842  0.3685  0.6842
 3749UDC     C341231  16.134  16.573  10.503 -0.5968  0.4667 -0.7693
 3749UDC     C441232  16.155  16.729  10.467  0.2338  0.3292  0.2043
 3749UDC     C541233  16.139  16.742  10.314  0.2239 -0.3327  0.5260
 3749UDC     C641234  16.007  16.795  10.257  0.4257  0.3492 -0.2413
 3749UDC     C741235  16.032  16.823  10.105  0.8110 -0.0058 -0.4995
 3749UDC     C841236  15.932  16.923  10.047  0.2949  0.8776 -0.0694
 3749UDC     C941237  15.834  16.974  10.147  0.9497 -0.3354 -0.4993
 3749UDC    C1041238  15.810  17.126  10.125  0.4180  0.2182 -0.1785
 3749UDC    C1141239  15.765  17.205  10.248  0.2302 -0.2496  0.0476
 3750UDC     C141240  12.626  14.284  13.614  1.0220 -1.0099  0.5144
 3750UDC     C241241  12.696  14.178  13.528  1.2216 -0.3230 -0.4824
 3750UDC     C341242  12.709  14.035  13.598  0.0734  0.8763 -0.3288
 3750UDC     C441243  12.675  14.051  13.745  0.6856 -0.2537  0.7277
 3750UDC     C541244  12.659  13.921  13.826 -1.1516 -0.5461  0.2302
 3750UDC     C641245  12.558  13.944  13.938 -0.4987  0.2877 -0.1697
 3750UDC     C741246  12.521  13.829  14.035 -0.3452  0.8608 -0.5326
 3750UDC     C841247  12.656  13.777  14.103  0.6919  0.2446  0.0429
 3750UDC     C941248  12.711  13.874  14.209 -0.1165  0.3085  0.6169
 3750UDC    C1041249  12.862  13.849  14.226 -0.5485  0.5763  0.0103
 3750UDC    C1141250  12.942  13.914  14.346 -1.3808 -0.4844 -0.5474
 3751UDC     C141251  11.368  13.982   8.896  0.3237  0.3226  0.9101
 3751UDC     C241252  11.389  14.032   8.749 -0.8410 -0.3005  0.2233
 3751UDC     C341253  11.438  14.174   8.747  1.2749 -1.9282  0.0603
 3751UDC     C441254  11.399  14.257   8.621  0.6944 -0.2427  0.4977
 3751UDC     C541255  11.511  14.348   8.567  0.4356  0.0933  0.4541
 3751UDC     C641256  11.609  14.272   8.478 -1.0524  0.6484 -0.2712
 3751UDC     C741257  11.575  14.154   8.389 -0.5463 -0.0678  0.3196
 3751UDC     C841258  11.509  14.206   8.255 -0.6994  0.6357 -0.6630
 3751UDC     C941259  11.365  14.247   8.272  0.2540  0.0616  0.6168
 3751UDC    C1041260  11.287  14.280   8.142  0.9914  0.6494 -0.1859
 3751UDC    C1141261  11.145  14.336   8.158  0.3378  1.1068  0.5967
 3752UDC     C141262   5.642   9.505  11.440 -0.6024  0.2668  0.5993
 3752UDC     C241263   5.596   9.455  11.580 -0.5719 -0.4446  1.1202
 3752UDC     C341264   5.460   9.516  11.618  0.0747  0.0871 -1.0175
 3752UDC     C441265   5.351   9.535  11.517 -0.5453 -0.1201  0.9488
 3752UDC     C541266   5.239   9.628  11.566 -0.9214  1.1157 -0.0032
 3752UDC     C641267   5.196   9.590  11.707  0.4266  0.9238  0.6153
 3752UDC     C741268   5.121   9.706  11.785  0.0583  0.1137  0.2999
 3752UDC     C841269   5.092   9.666  11.925  0.4432  0.0535 -0.0058
 3752UDC     C941270   5.018   9.774  11.996  0.3170 -0.7088  0.3761
 3752UDC    C1041271   5.012   9.739  12.147  0.4290  0.0614 -0.4023
 3752UDC    C1141272   4.944   9.832  12.238 -0.0141 -0.8086 -0.1275
 3753UDC     C141273  11.638   8.175   8.115 -0.2280 -0.0169 -0.0287
 3753UDC     C241274  11.744   8.171   8.004  0.2874  0.3198 -0.0789
 3753UDC     C341275  11.783   8.305   7.947  0.7098  0.3762  0.4920
 3753UDC     C441276  11.866   8.327   7.820  0.7180 -0.7306 -0.5698
 3753UDC     C541277  11.900   8.485   7.820  0.3885  0.8940 -0.7250
 3753UDC     C641278  11.773   8.570   7.846 -0.3257  0.3403  0.8769
 3753UDC     C741279  11.796   8.709   7.912  0.0937  0.9457  0.9325
 3753UDC     C841280  11.674   8.771   7.989 -0.9077 -0.7363  0.2019
 3753UDC     C941281  11.667   8.733   8.140  0.0897 -0.4203 -0.0212
 3753UDC    C1041282  11.573   8.840   8.207 -0.1315  0.4277  0.6865
 3753UDC    C1141283  11.437   8.857   8.147 -0.0057 -0.3041  0.5091
 3754UDC     C141284  16.689   2.268  11.095  0.8229  0.5821 -0.2149
 3754UDC     C241285  16.669   2.422  11.115  0.5189  0.7609 -0.2756
 3754UDC     C341286  16.713   2.457  11.263  1.2838  0.7377 -0.4665
 3754UDC     C441287  16.631   2.569  11.326  0.6384 -0.1851  0.7697
 3754UDC     C541288  16.498   2.597  11.247 -0.4936  0.4035 -0.0457
 3754UDC     C641289  16.412   2.695  11.324 -1.2736 -0.3980  0.0324
 3754UDC     C741290  16.507   2.760  11.435  1.3793  0.3128  1.2236
 3754UDC     C841291  16.465   2.902  11.464  0.8144  0.6461 -0.5902
 3754UDC     C941292  16.549   2.972  11.566 -0.7558 -0.4945 -0.4208
 3754UDC    C1041293  16.529   3.119  11.569 -0.1649 -0.5353 -0.6810
 3754UDC    C1141294  16.569   3.195  11.432  0.6321 -0.0263  0.9202
 3755UDC     C141295  15.516  15.573   9.097  0.3743  0.4879 -0.4213
 3755UDC     C241296  15.389  15.652   9.126 -0.7942  0.1273 -0.3101
 3755UDC     C341297  15.251  15.588   9.113  0.1704  1.2684  0.8008
 3755UDC     C441298  15.129  15.675   9.144 -0.6190  0.2009 -0.5570
 3755UDC     C541299  15.000  15.614   9.086 -0.4710  0.1694 -0.0749
 3755UDC     C641300  14.991  15.579   8.934  0.9552 -0.2593  0.0070
 3755UDC     C741301  14.886  15.484   8.885  0.9374 -0.4390  0.0434
 3755UDC     C841302  14.876  15.480   8.725  0.1074  1.3075 -0.7486
 3755UDC     C941303  14.772  15.375   8.668 -1.5201 -0.4393  0.6332
 3755UDC    C1041304  14.741  15.404   8.526 -0.2545  0.4343 -0.5275
 3755UDC    C1141305  14.866  15.420   8.439 -0.4341 -0.1449 -0.2088
 3756UDC     C141306  14.567  15.675  15.227  0.6809 -0.0447  0.0684
 3756UDC     C241307  14.472  15.603  15.320  0.2670  0.2477  0.5751
 3756UDC     C341308  14.543  15.472  15.361  0.0276  0.1704 -0.0436
 3756UDC     C441309  14.501  15.352  15.275 -0.9400 -0.4949 -0.9683
 3756UDC     C541310  14.578  15.227  15.311  0.1939 -0.1638 -0.4850
 3756UDC     C641311  14.543  15.113  15.217 -0.5660 -0.2434  0.4124
 3756UDC     C741312  14.662  15.019  15.178 -0.4727 -0.4692 -0.2080
 3756UDC     C841313  14.622  14.874  15.134  1.4353 -0.3211  0.0532
 3756UDC     C941314  14.572  14.781  15.238  0.3986  1.0596 -1.2468
 3756UDC    C1041315  14.514  14.658  15.163 -0.6751  0.5856 -0.3485
 3756UDC    C1141316  14.485  14.553  15.268  0.2835  0.8977 -0.8661
 3757UDC     C141317   0.872   0.273   6.499  0.4312 -0.4551  0.1024
 3757UDC     C241318   0.763   0.377   6.553  1.3581  0.2476  0.7281
 3757UDC     C341319   0.812   0.500   6.619 -0.7627  0.2880 -0.4212
 3757UDC     C441320   0.718   0.603   6.689 -1.0724  0.9889 -0.7555
 3757UDC     C541321   0.792   0.708   6.766 -0.8067 -0.1132  0.3494
 3757UDC     C641322   0.783   0.710   6.921  0.5631  0.1447  0.3193
 3757UDC     C741323   0.797   0.850   6.980 -0.2906 -0.8833 -0.5497
 3757UDC     C841324   0.933   0.915   6.947 -0.4853 -0.1504  0.0108
 3757UDC     C941325   0.924   1.071   6.940 -0.0371  0.7605 -0.6607
 3757UDC    C1041326   1.057   1.141   6.906  0.1752  1.8685  0.5903
 3757UDC    C1141327   1.052   1.292   6.947  0.2247  0.3752  1.1514
 3758UDC     C141328   5.741  14.152   9.271 -0.1883 -0.6815  0.4650
 3758UDC     C241329   5.689  14.158   9.121  0.0990 -0.5406  0.0381
 3758UDC     C341330   5.726  14.290   9.047  0.6163  0.8158 -0.8998
 3758UDC     C441331   5.717  14.277   8.899 -0.3693 -0.3797  0.3115
 3758UDC     C541332   5.685  14.416   8.845  0.1843 -0.1636 -0.3162
 3758UDC     C641333   5.649  14.416   8.695  0.1234 -0.4069 -0.6211
 3758UDC     C741334   5.517  14.344   8.662 -1.0641 -0.4886 -1.0126
 3758UDC     C841335   5.498  14.287   8.522  0.9165  0.1515  0.4825
 3758UDC     C941336   5.363  14.198   8.508 -1.4107  0.3789 -0.8676
 3758UDC    C1041337   5.241  14.288   8.517 -0.4603 -1.2049 -0.5559
 3758UDC    C1141338   5.117  14.226   8.437  0.3457 -0.0508 -0.7212
 3759UDC     C141339  19.491  17.642   3.660 -0.0761 -0.4253 -0.1025
 3759UDC     C241340  19.445  17.729   3.779  0.4284  0.1125 -0.1760
 3759UDC     C341341  19.547  17.851   3.782  0.8765  0.4218  0.1130
 3759UDC     C441342  19.567  17.913   3.932  0.2913  0.5762  0.4845
 3759UDC     C541343  19.633  18.057   3.938 -0.0395 -0.1061  0.0169
 3759UDC     C641344  19.630  18.111   4.086 -0.0732 -0.6058  0.3179
 3759UDC     C741345  19.628  18.268   4.115  0.2479 -0.3099 -0.4048
 3759UDC     C841346  19.490  18.335   4.126 -0.1319 -0.7768 -0.1040
 3759UDC     C941347  19.475  18.469   4.202 -0.1924 -0.4175  1.0255
 3759UDC    C1041348  19.534  18.466   4.346  0.1269 -0.5607  1.2718
 3759UDC    C1141349  19.446  18.513   4.459 -0.7864 -0.3502  0.1336
 3760UDC     C141350   4.169   3.924   6.183 -0.6020 -0.7873 -0.0434
 3760UDC     C241351   4.252   4.000   6.084 -0.7289  0.6720 -0.7550
 3760UDC     C341352   4.399   4.031   6.119 -0.8141 -0.4670  0.8280
 3760UDC     C441353   4.457   4.155   6.040  0.1726 -0.4818 -0.2426
 3760UDC     C541354   4.421   4.163   5.892 -0.0837 -1.4613  0.1871
 3760UDC     C641355   4.484   4.044   5.832  0.2918  0.6598  0.0003
 3760UDC     C741356   4.493   4.090   5.686 -0.6556 -0.6346 -0.6455
 3760UDC     C841357   4.563   3.982   5.596  0.3859 -1.0262 -0.2774
 3760UDC     C941358   4.659   4.035   5.492 -0.3002 -0.0044  0.8768
 3760UDC    C1041359   4.794   4.078   5.545 -0.0217  0.7458 -0.5969
 3760UDC    C1141360   4.873   3.982   5.637 -0.7009 -0.7074 -0.0179
 3761UDC     C141361  11.446  14.675  19.533  0.7661 -0.6356  0.0521
 3761UDC     C241362  11.364  14.760  19.639  0.0025  0.1849 -0.8738
 3761UDC     C341363  11.346  14.903  19.590 -0.8524 -0.1245 -1.3735
 3761UDC     C441364  11.442  14.928  19.477 -1.2991 -1.1185  0.0525
 3761UDC     C541365  11.416  15.079  19.439 -0.1544  1.1253  0.8146
 3761UDC     C641366  11.500  15.177  19.523  0.0974  1.3958  0.5248
 3761UDC     C741367  11.651  15.135  19.519 -0.8093 -0.0951 -0.4061
 3761UDC     C841368  11.764  15.221  19.585  1.0219 -0.0635 -0.1260
 3761UDC     C941369  11.910  15.173  19.589 -0.3290  0.7978  0.2365
 3761UDC    C1041370  11.942  15.122  19.447 -0.1420 -0.4368  1.1475
 3761UDC    C1141371  12.029  15.003  19.424  0.4560 -0.3523 -0.3540
 3762UDC     C141372  19.677   7.029   1.526  0.2062  0.2753  0.1205
 3762UDC     C241373  19.530   6.999   1.569 -0.6917  0.1019  0.8416
 3762UDC     C341374  19.485   6.861   1.529  0.2481  1.3369  0.5537
 3762UDC     C441375  19.488   6.842   1.370 -0.0618  0.8310  0.1551
 3762UDC     C541376  19.524   6.712   1.289  0.3358  0.8202  0.3015
 3762UDC     C641377  19.649   6.631   1.325 -0.2815  0.5660 -0.3505
 3762UDC     C741378  19.714   6.539   1.222  1.6756 -0.2523  0.1058
 3762UDC     C841379  19.810   6.624   1.134 -0.1892  1.4181  0.5418
 3762UDC     C941380  19.892   6.539   1.043 -1.1772 -0.5014  0.4273
 3762UDC    C1041381  19.993   6.470   1.138  1.0423  0.2167 -0.0134
 3762UDC    C1141382  20.058   6.356   1.059 -0.2845  1.0188  0.7583
 3763UDC     C141383   7.751  10.471  17.910  0.6934 -0.6459 -0.7017
 3763UDC     C241384   7.820  10.593  17.840  0.5711 -0.1890 -0.8337
 3763UDC     C341385   7.843  10.587  17.692 -0.6614  0.2224  0.6897
 3763UDC     C441386   7.912  10.462  17.634 -0.1135 -0.4715  0.0693
 3763UDC     C541387   7.912  10.451  17.479 -0.4758  0.0949 -0.0932
 3763UDC     C641388   7.809  10.358  17.407 -0.0453  0.2154  0.1715
 3763UDC     C741389   7.824  10.202  17.398  0.6951 -0.5560  0.3409
 3763UDC     C841390   7.909  10.129  17.499 -0.3244 -0.3886 -1.0570
 3763UDC     C941391   7.988  10.018  17.439 -0.2284 -0.6575 -0.2380
 3763UDC    C1041392   7.993   9.885  17.513 -0.7321  0.9595  0.6769
 3763UDC    C1141393   7.887   9.781  17.481 -0.2676  0.1548  0.5722
 3764UDC     C141394   1.929  13.486  19.028 -0.2621 -0.5662 -0.4670
 3764UDC     C241395   1.990  13.629  19.027  0.3700 -0.3350  0.1039
 3764UDC     C341396   1.875  13.740  19.027  0.3198 -0.3592  0.8940
 3764UDC     C441397   1.883  13.836  18.915  0.3096 -0.0519  0.6952
 3764UDC     C541398   1.764  13.931  18.912  0.8518  0.9950  0.6534
 3764UDC     C641399   1.619  13.893  18.941 -0.1795 -0.4321  0.3249
 3764UDC     C741400   1.531  14.017  18.934  0.0829 -0.1244 -0.8160
 3764UDC     C841401   1.547  14.113  19.053  0.4612  0.1256 -0.3469
 3764UDC     C941402   1.443  14.235  19.034  0.0793  1.0181 -0.5872
 3764UDC    C1041403   1.441  14.316  19.163 -0.8027  0.3665  0.3868
 3764UDC    C1141404   1.323  14.287  19.252  0.0952  0.2113  0.3253
 3765UDC     C141405  15.801   9.264  16.517 -0.5575  0.1694  0.0264
 3765UDC     C241406  15.920   9.176  16.557 -0.9385  0.0892 -0.5708
 3765UDC     C341407  16.002   9.144  16.432 -0.5319  0.4297 -0.6128
 3765UDC     C441408  16.148   9.106  16.471  0.6276 -0.1272  0.2530
 3765UDC     C541409  16.245   9.114  16.348  0.4053 -0.0625  0.3711
 3765UDC     C641410  16.249   9.252  16.287 -0.4283 -1.0228  0.5544
 3765UDC     C741411  16.301   9.358  16.389  0.3239 -0.7621 -1.5752
 3765UDC     C841412  16.436   9.335  16.468 -0.3984 -0.9689  0.3589
 3765UDC     C941413  16.462   9.438  16.573 -0.0018  0.4920 -0.8999
 3765UDC    C1041414  16.583   9.417  16.666 -0.4828  0.4943  0.0883
 3765UDC    C1141415  16.536   9.303  16.772 -0.2194 -0.8203 -0.1537
 3766UDC     C141416  17.302  19.485   3.939  0.1724 -1.5040  0.0342
 3766UDC     C241417  17.315  19.629   4.003 -0.3912 -1.3901 -0.3902
 3766UDC     C341418  17.449  19.708   3.960 -0.8750  1.4687 -0.5825
 3766UDC     C441419  17.414  19.855   3.974 -0.2106 -0.0234 -0.0152
 3766UDC     C541420  17.317  19.931   3.889 -0.4903  0.5375  1.4167
 3766UDC     C641421  17.330  20.081   3.926  0.1692 -0.7026  1.0603
 3766UDC     C741422  17.233  20.170   3.836 -2.2050  0.0787  0.3446
 3766UDC     C841423  17.094  20.133   3.859  0.9482 -0.2526  1.6559
 3766UDC     C941424  16.983  20.230   3.840  0.9283  0.0221 -0.8255
 3766UDC    C1041425  16.831  20.178   3.847 -0.3415  0.0278  0.3539
 3766UDC    C1141426  16.729  20.291   3.835  0.7742 -0.8702  0.1439
 3767UDC     C141427  17.572  12.602   0.498 -0.3494  0.0291  0.6288
 3767UDC     C241428  17.668  12.645   0.614 -0.2545  0.4684 -0.1452
 3767UDC     C341429  17.823  12.642   0.584 -0.5733  0.9799 -0.5812
 3767UDC     C441430  17.914  12.753   0.651  0.6030 -0.1927 -0.1300
 3767UDC     C541431  18.031  12.789   0.566 -0.6482 -0.1666  1.0202
 3767UDC     C641432  18.163  12.715   0.543 -0.1111  0.1213  0.5471
 3767UDC     C741433  18.220  12.632   0.659 -0.4842  0.9164 -0.4647
 3767UDC     C841434  18.344  12.537   0.650 -0.3690  0.1027 -0.6617
 3767UDC     C941435  18.334  12.399   0.729 -1.5058 -1.2698  0.6142
 3767UDC    C1041436  18.441  12.290   0.711  0.3297  0.2952 -0.0471
 3767UDC    C1141437  18.406  12.160   0.790  0.4065 -0.4832  0.2609
 3768UDC     C141438  14.371  19.682  11.088  1.1191  0.2164 -0.7863
 3768UDC     C241439  14.271  19.751  10.998  0.7036 -0.3334 -0.2845
 3768UDC     C341440  14.330  19.883  10.937 -0.4887  0.5237 -0.0145
 3768UDC     C441441  14.455  19.862  10.851  0.4152  0.3301 -0.5646
 3768UDC     C541442  14.500  19.990  10.782 -0.0534 -0.0940  0.7638
 3768UDC     C641443  14.467  20.109  10.875 -0.3198  0.3216  0.0262
 3768UDC     C741444  14.529  20.239  10.815 -0.3328  0.6047 -0.4526
 3768UDC     C841445  14.571  20.195  10.671  0.1215 -1.7968 -0.7590
 3768UDC     C941446  14.654  20.297  10.599 -0.6800  0.3060 -0.0869
 3768UDC    C1041447  14.803  20.313  10.624 -0.0951  0.5366 -0.8365
 3768UDC    C1141448  14.831  20.471  10.641  0.0296  0.6421 -0.4619
 3769UDC     C141449   9.901   8.764  19.827 -0.3152  0.7126  0.4365
 3769UDC     C241450   9.859   8.791  19.974 -0.0621  0.9114 -0.1279
 3769UDC     C341451   9.982   8.816  20.067  0.5077 -0.7688  0.4759
 3769UDC     C441452   9.945   8.830  20.215  0.4979  0.6874  0.4221
 3769UDC     C541453   9.844   8.726  20.269  1.4436  0.6176 -0.3058
 3769UDC     C641454   9.837   8.734  20.420 -0.1110  1.1743  0.2874
 3769UDC     C741455   9.687   8.700  20.462 -0.1164  0.4331  0.8820
 3769UDC     C841456   9.610   8.828  20.487  0.5328 -0.5190 -0.2118
 3769UDC     C941457   9.660   8.889  20.620  0.5655  0.4794  0.3717
 3769UDC    C1041458   9.621   9.036  20.627  0.6870  0.2544 -0.2341
 3769UDC    C1141459   9.580   9.073  20.766 -0.1056  0.7487 -0.5535
 3770UDC     C141460  12.840  12.114   7.796 -0.0955  0.1582 -0.2405
 3770UDC     C241461  12.841  11.981   7.712 -0.2772 -0.3888 -1.9991
 3770UDC     C341462  12.986  11.937   7.748  0.2615  0.8207 -0.0995
 3770UDC     C441463  12.991  11.953   7.896 -0.7346  0.1589 -1.4733
 3770UDC     C541464  13.138  11.943   7.947  0.5242  0.2943  0.0468
 3770UDC     C641465  13.210  11.806   7.927 -0.7122  0.2565  0.0526
 3770UDC     C741466  13.154  11.673   7.979  1.1360 -0.0030  0.5147
 3770UDC     C841467  13.039  11.619   7.894 -0.4187 -0.1781  0.9215
 3770UDC     C941468  12.989  11.485   7.947 -0.6039 -0.4624  0.8405
 3770UDC    C1041469  13.097  11.377   7.939 -0.2930 -0.5958  0.2003
 3770UDC    C1141470  13.047  11.253   8.017  0.5725  0.1934 -0.8927
 3771UDC     C141471  13.609   1.311  15.334  2.0462  0.5972 -0.7788
 3771UDC     C241472  13.670   1.168  15.322  0.2407 -0.3523 -0.1826
 3771UDC     C341473  13.719   1.150  15.175  0.3289  0.7916 -0.5639
 3771UDC     C441474  13.601   1.124  15.073 -0.5367 -0.4086  0.3709
 3771UDC     C541475  13.637   1.069  14.936 -0.5580 -0.1940 -1.4701
 3771UDC     C641476  13.566   1.156  14.827 -0.5167  0.7818  0.9169
 3771UDC     C741477  13.472   1.061  14.742  0.7837  0.0373 -0.0297
 3771UDC     C841478  13.358   1.129  14.659  0.3871  0.7093 -0.7347
 3771UDC     C941479  13.267   1.042  14.572  0.6130  0.8927  0.5084
 3771UDC    C1041480  13.367   0.943  14.494 -0.1963 -0.9427  0.1558
 3771UDC    C1141481  13.324   0.875  14.358 -0.1494  0.7753 -0.7474
 3772UDC     C141482  14.393   2.527   5.396  0.4809  0.1616  0.3847
 3772UDC     C241483  14.349   2.423   5.499  0.5250 -0.3835 -0.5433
 3772UDC     C341484  14.453   2.325   5.545 -0.4274  0.1096 -1.1023
 3772UDC     C441485  14.515   2.267   5.418  0.2672 -0.1334  0.0982
 3772UDC     C541486  14.421   2.167   5.340  0.4846 -0.1777 -0.6514
 3772UDC     C641487  14.468   2.133   5.198 -0.0481  0.7650 -0.5002
 3772UDC     C741488  14.483   2.234   5.084  0.5049 -0.7085 -0.1911
 3772UDC     C841489  14.613   2.223   4.998 -0.2643  1.0318 -0.7841
 3772UDC     C941490  14.660   2.357   4.934  0.6253 -0.8202 -0.0244
 3772UDC    C1041491  14.548   2.411   4.835  0.2384 -0.7055 -1.1939
 3772UDC    C1141492  14.608   2.547   4.779 -0.3961  0.5308 -0.2724
 3773UDC     C141493  11.106  17.416   4.135  0.2253  0.5441  0.7525
 3773UDC     C241494  11.087  17.284   4.056 -0.3133 -0.5959  0.3436
 3773UDC     C341495  11.166  17.306   3.923 -0.3670  0.4322  1.0472
 3773UDC     C441496  11.120  17.217   3.809 -0.2957  0.2303  0.8138
 3773UDC     C541497  11.173  17.248   3.667  0.1720 -0.3152 -0.8394
 3773UDC     C641498  11.103  17.187   3.541  0.1690  1.2041  0.5577
 3773UDC     C741499  11.178  17.220   3.408  0.1945 -0.4951  0.0193
 3773UDC     C841500  11.300  17.129   3.385 -0.3975 -0.5497 -0.6760
 3773UDC     C941501  11.422  17.205   3.324 -0.0513  0.1086  0.8385
 3773UDC    C1041502  11.542  17.181   3.420  0.0546  0.4342 -0.4674
 3773UDC    C1141503  11.544  17.243   3.560 -0.1565 -0.1730 -0.5861
 3774UDC     C141504  12.453   9.027  12.577  1.5653  0.5141  0.8864
 3774UDC     C241505  12.539   9.022  12.700  0.3853 -0.0489  0.7312
 3774UDC     C341506  12.455   9.002  12.818  0.2751  0.6654  0.0644
 3774UDC     C441507  12.546   9.005  12.937  1.0586  1.5335  0.0741
 3774UDC     C541508  12.631   9.126  12.946 -0.2456 -0.3533  0.3319
 3774UDC     C641509  12.718   9.149  13.069  0.2354  0.1388  0.3295
 3774UDC     C741510  12.825   9.253  13.054 -1.4776 -0.8787 -0.5760
 3774UDC     C841511  12.810   9.406  13.085 -0.3871  0.3076 -1.3414
 3774UDC     C941512  12.866   9.441  13.224  0.0650  0.0891  0.2601
 3774UDC    C1041513  12.835   9.590  13.253  0.2730 -0.1511 -0.0266
 3774UDC    C1141514  12.850   9.640  13.398  0.5792 -0.4573  0.6634
 3775UDC     C141515   9.151   7.070   0.355 -0.3822 -0.7681 -0.0858
 3775UDC     C241516   9.266   7.029   0.253  0.6036 -0.1421  1.3085
 3775UDC     C341517   9.376   7.134   0.257  0.6459 -0.3936  0.0435
 3775UDC     C441518   9.477   7.111   0.140 -0.4664  0.1745 -0.2002
 3775UDC     C541519   9.601   7.201   0.122  0.4400 -0.3612 -0.1311
 3775UDC     C641520   9.700   7.196   0.243 -0.0460  0.0192  0.8355
 3775UDC     C741521   9.789   7.322   0.250  0.3521  0.4736  0.3223
 3775UDC     C841522   9.899   7.288   0.346 -0.7288 -0.4182 -1.1779
 3775UDC     C941523  10.008   7.395   0.370 -1.1451 -0.5764  0.3165
 3775UDC    C1041524  10.015   7.505   0.484 -0.5416  0.0024 -0.1517
 3775UDC    C1141525   9.912   7.614   0.477 -0.0706 -0.6058 -0.6919
 3776UDC     C141526  11.080   6.510  14.293 -0.0741 -0.0711 -0.8983
 3776UDC     C241527  11.157   6.543  14.172 -0.6114  0.1408  0.5870
 3776UDC     C341528  11.262   6.654  14.189  0.6925  0.0444  0.0851
 3776UDC     C441529  11.337   6.691  14.056 -0.7297  0.8254 -0.2453
 3776UDC     C541530  11.488   6.657  14.050  0.6501 -0.3374  0.8267
 3776UDC     C641531  11.517   6.510  13.998 -0.5175 -0.1623 -0.4976
 3776UDC     C741532  11.560   6.544  13.851 -0.5000 -0.2168 -0.1551
 3776UDC     C841533  11.565   6.434  13.754  1.0800  1.3850 -0.2099
 3776UDC     C941534  11.658   6.308  13.789  0.5784  0.2418 -0.5711
 3776UDC    C1041535  11.806   6.347  13.807  1.0989  0.6669  0.8363
 3776UDC    C1141536  11.879   6.218  13.855  0.0134 -1.0042 -0.1905
 3777UDC     C141537   4.130  17.653  13.077 -0.2249 -0.1821  0.0732
 3777UDC     C241538   4.135  17.698  13.227  0.0848 -0.1943 -0.0334
 3777UDC     C341539   4.056  17.829  13.265  2.0245 -0.2369 -1.3792
 3777UDC     C441540   3.903  17.802  13.299  0.5218 -0.6707  0.2393
 3777UDC     C541541   3.846  17.941  13.323 -0.1433 -0.1426  0.9133
 3777UDC     C641542   3.853  18.016  13.188 -0.3476  0.2656 -1.2935
 3777UDC     C741543   3.736  17.981  13.097  0.5221  0.1537 -0.9395
 3777UDC     C841544   3.733  18.076  12.975  0.1894  0.1341 -0.0962
 3777UDC     C941545   3.604  18.130  12.917 -0.0110  0.0794 -0.0776
 3777UDC    C1041546   3.608  18.265  12.847  0.8463  0.1973 -0.4420
 3777UDC    C1141547   3.708  18.290  12.730 -0.6049  0.7924  0.7477
 3778UDC     C141548   8.511  13.823   5.650  0.1554  1.6311  1.3052
 3778UDC     C241549   8.651  13.856   5.684 -0.2717 -0.1831  0.3794
 3778UDC     C341550   8.681  13.970   5.780 -0.3710  1.0075 -0.7406
 3778UDC     C441551   8.810  14.046   5.777 -0.2081 -0.7561 -0.7447
 3778UDC     C541552   8.800  14.181   5.853  1.5300 -0.2640 -0.5482
 3778UDC     C641553   8.783  14.124   5.997 -0.4352  0.5287 -0.0249
 3778UDC     C741554   8.745  14.231   6.103 -0.2731  0.7170 -0.1644
 3778UDC     C841555   8.737  14.175   6.244  0.3184 -0.5884 -0.0583
 3778UDC     C941556   8.696  14.277   6.361  0.5937  0.0284  0.0762
 3778UDC    C1041557   8.671  14.197   6.492 -0.5031  0.2111 -0.3646
 3778UDC    C1141558   8.621  14.280   6.612  0.9559  0.5708  0.1105
 3779UDC     C141559  17.323  12.576  12.144  0.3640  0.2210 -0.6984
 3779UDC     C241560  17.466  12.615  12.116  0.0098  0.5866  0.1535
 3779UDC     C341561  17.510  12.655  11.972  0.9701 -0.1881 -0.2811
 3779UDC     C441562  17.482  12.529  11.885  0.1393 -0.2694  0.1904
 3779UDC     C541563  17.388  12.529  11.763 -0.3939  0.7603 -0.2597
 3779UDC     C641564  17.476  12.525  11.629  0.2541 -0.1701  0.6293
 3779UDC     C741565  17.387  12.541  11.502 -0.4975 -0.0714  0.5787
 3779UDC     C841566  17.464  12.577  11.376 -0.6691  0.5753 -0.3663
 3779UDC     C941567  17.370  12.567  11.258  0.8172  0.2661 -0.2262
 3779UDC    C1041568  17.428  12.630  11.127 -0.2205 -0.6086 -0.5442
 3779UDC    C1141569  17.574  12.586  11.083  0.2100  0.4225 -0.4135
 3780UDC     C141570   0.852   3.190   4.937  1.1264 -0.2340 -0.3805
 3780UDC     C241571   0.810   3.074   5.021 -0.0435  0.1154 -1.5821
 3780UDC     C341572   0.726   2.971   4.954 -0.1918 -0.7180 -0.3377
 3780UDC     C441573   0.809   2.847   4.901  0.4687 -0.2637 -0.7887
 3780UDC     C541574   0.729   2.720   4.862 -0.6035  0.7323  0.5615
 3780UDC     C641575   0.616   2.742   4.754 -0.5381 -0.3554  0.3678
 3780UDC     C741576   0.555   2.610   4.714 -0.4388  0.6522 -1.0655
 3780UDC     C841577   0.416   2.626   4.658 -0.1885  0.3011  0.1916
 3780UDC     C941578   0.405   2.647   4.506 -0.1848  0.7366 -0.3952
 3780UDC    C1041579   0.398   2.509   4.442 -0.1107  0.2241  0.0099
 3780UDC    C1141580   0.526   2.435   4.410  0.5339  0.1747 -0.0775
 3781UDC     C141581  15.986  10.948  10.094  0.2600 -0.9580  0.0179
 3781UDC     C241582  16.042  10.963  10.233 -0.8644  0.3878 -0.6710
 3781UDC     C341583  15.984  10.886  10.356 -0.9016 -1.0588 -0.0906
 3781UDC     C441584  16.056  10.891  10.496  0.2355  0.1083  1.4009
 3781UDC     C541585  16.074  10.752  10.552 -0.7027 -0.2064  1.0619
 3781UDC     C641586  16.196  10.742  10.653  0.2172  0.0644 -0.6930
 3781UDC     C741587  16.144  10.693  10.792  0.4343  0.3956  0.1378
 3781UDC     C841588  16.235  10.722  10.907 -0.0345  0.2456 -0.1034
 3781UDC     C941589  16.332  10.609  10.928 -0.4818 -0.4253  0.8079
 3781UDC    C1041590  16.418  10.643  11.048  0.0445 -0.1613 -0.7906
 3781UDC    C1141591  16.539  10.557  11.072  1.1638  0.2611  0.2224
 3782UDC     C141592  17.671  12.502  17.060  0.2520  0.3843  0.2068
 3782UDC     C241593  17.718  12.568  16.933  0.4350  0.0333  1.3441
 3782UDC     C341594  17.655  12.704  16.904  0.2040  0.6098 -0.8663
 3782UDC     C441595  17.688  12.837  16.972  1.1673 -0.1055 -0.0163
 3782UDC     C541596  17.835  12.861  16.930 -0.7510 -0.3149  0.3215
 3782UDC     C641597  17.902  13.002  16.970  0.5903 -0.4064 -0.4154
 3782UDC     C741598  18.044  13.026  16.922  0.2197  0.0787  1.1487
 3782UDC     C841599  18.104  13.156  16.971 -0.8510  0.5285 -0.4264
 3782UDC     C941600  18.245  13.181  16.937 -0.2211 -0.0103  0.9567
 3782UDC    C1041601  18.355  13.256  17.020 -0.2914 -0.5421 -0.5979
 3782UDC    C1141602  18.507  13.249  16.977 -0.2713  0.0650  0.8558
 3783UDC     C141603  15.821   8.662   9.616 -1.0127  0.5465 -1.0214
 3783UDC     C241604  15.837   8.571   9.742 -0.7492 -0.4968  0.1076
 3783UDC     C341605  15.721   8.474   9.773  0.8553  0.1033  0.7058
 3783UDC     C441606  15.744   8.375   9.878  0.3990  0.5163 -0.6061
 3783UDC     C541607  15.626   8.278   9.869  0.7037  0.9605 -0.0936
 3783UDC     C641608  15.609   8.166   9.973  0.2583 -0.4485  0.9152
 3783UDC     C741609  15.687   8.037   9.948  0.6090 -0.5044  0.0927
 3783UDC     C841610  15.659   7.932  10.056 -0.3905 -0.3259 -1.4410
 3783UDC     C941611  15.706   7.781  10.035  0.3123  0.4843 -0.1181
 3783UDC    C1041612  15.856   7.763  10.023 -0.4156  0.4237 -0.2914
 3783UDC    C1141613  15.919   7.634  10.098 -0.4555 -0.1591  0.7112
 3784UDC     C141614  13.357  14.696  11.653 -0.1354  0.4867 -0.7062
 3784UDC     C241615  13.244  14.623  11.722 -0.0762  0.0284  0.2101
 3784UDC     C341616  13.250  14.472  11.720  0.1987  0.6385 -0.7080
 3784UDC     C441617  13.122  14.404  11.774  0.0713  0.6884  0.3088
 3784UDC     C541618  13.153  14.263  11.806  0.4013  1.1376 -0.1440
 3784UDC     C641619  13.243  14.171  11.722  0.4031  0.3523 -0.5070
 3784UDC     C741620  13.195  14.144  11.580 -0.1781  0.6342 -0.0529
 3784UDC     C841621  13.119  14.014  11.571 -0.1864 -0.2520  0.4529
 3784UDC     C941622  13.170  13.867  11.532  0.6816 -0.1077  0.6838
 3784UDC    C1041623  13.056  13.772  11.480 -0.9250  0.6545 -0.3001
 3784UDC    C1141624  13.023  13.663  11.583  1.0400  0.5047  0.1381
 3785UDC     C141625  14.130  14.830  18.907 -0.6676  0.2986 -0.2007
 3785UDC     C241626  14.087  14.966  18.855 -0.5335 -0.4444 -0.3468
 3785UDC     C341627  14.215  15.040  18.838  0.6547 -0.8806  0.9202
 3785UDC     C441628  14.173  15.188  18.832 -0.2677 -0.4720  1.1049
 3785UDC     C541629  14.279  15.301  18.804  0.3770  0.2343  0.2303
 3785UDC     C641630  14.208  15.440  18.806 -0.7514 -1.1676 -0.8963
 3785UDC     C741631  14.226  15.494  18.948 -0.1665 -0.7807  0.5617
 3785UDC     C841632  14.170  15.637  18.967  0.0048  0.1741 -0.7445
 3785UDC     C941633  14.190  15.684  19.112 -0.0640 -0.2507  0.1113
 3785UDC    C1041634  14.097  15.625  19.219  0.1468  1.4707  0.0067
 3785UDC    C1141635  14.137  15.633  19.371 -0.6379 -0.7830  0.2128
 3786UDC     C141636  11.612   8.891   1.204 -0.4328  0.3021  0.7895
 3786UDC     C241637  11.510   9.003   1.223  0.4249  0.0059  0.1692
 3786UDC     C341638  11.362   8.960   1.203  0.4791 -0.7440 -0.9622
 3786UDC     C441639  11.297   8.931   1.063 -0.4269  0.1677 -0.5575
 3786UDC     C541640  11.148   8.922   1.093 -0.1783 -1.2929  0.0696
 3786UDC     C641641  11.100   9.056   1.160 -0.4986  0.5179  0.9652
 3786UDC     C741642  10.967   9.045   1.239 -0.8715 -1.0681 -0.1589
 3786UDC     C841643  10.953   8.917   1.320  0.3664 -0.6084  0.5576
 3786UDC     C941644  10.828   8.918   1.414 -0.2376 -0.2635 -0.3364
 3786UDC    C1041645  10.830   9.029   1.517  0.1146  0.4268  0.3292
 3786UDC    C1141646  10.709   9.037   1.615  0.6624 -0.6794  0.7836
 3787UDC     C141647  18.300  10.806   2.910 -0.0881 -0.2170 -0.7341
 3787UDC     C241648  18.419  10.756   2.824  0.3738 -0.4593 -0.2041
 3787UDC     C341649  18.548  10.805   2.898  0.4140 -0.1045  0.1046
 3787UDC     C441650  18.601  10.935   2.832  0.4863 -0.5533 -0.0448
 3787UDC     C541651  18.602  10.954   2.683 -0.1994  0.0340  0.2608
 3787UDC     C641652  18.644  11.095   2.655  0.8537 -0.1501 -0.3217
 3787UDC     C741653  18.712  11.126   2.529 -1.4493  0.5151  0.5807
 3787UDC     C841654  18.624  11.107   2.405 -1.0999  0.7961  0.8206
 3787UDC     C941655  18.526  11.222   2.403 -0.9444  0.0626  1.0691
 3787UDC    C1041656  18.375  11.178   2.391  0.3276 -0.5139  0.8024
 3787UDC    C1141657  18.323  11.169   2.244 -1.4591  0.3026  1.1702
 3788UDC     C141658   1.961  10.763   8.948  0.6541  0.2451  0.5735
 3788UDC     C241659   2.072  10.687   8.883  0.0237  0.9918 -0.3832
 3788UDC     C341660   2.168  10.588   8.952 -0.5635  0.6371  0.3630
 3788UDC     C441661   2.145  10.439   8.912  0.7079  1.3153  0.4722
 3788UDC     C541662   2.259  10.340   8.945 -0.3806  0.4981  0.0254
 3788UDC     C641663   2.408  10.376   8.924  0.2612 -1.6342  0.3093
 3788UDC     C741664   2.495  10.300   9.014 -0.6457 -0.4849 -0.2579
 3788UDC     C841665   2.650  10.309   8.993 -0.3275  1.0344 -0.4392
 3788UDC     C941666   2.704  10.172   8.946 -0.0594  0.0698  0.1046
 3788UDC    C1041667   2.707  10.061   9.057  0.4151 -0.0877  0.0193
 3788UDC    C1141668   2.793   9.942   9.009  0.4946 -1.3905 -0.2608
 3789UDC     C141669   5.567   9.692   6.496  0.5005  0.7198  0.6989
 3789UDC     C241670   5.491   9.824   6.468  0.1979 -0.7439 -1.0192
 3789UDC     C341671   5.362   9.833   6.565 -0.5416  0.6032 -0.4508
 3789UDC     C441672   5.407   9.863   6.707  0.4408 -0.2126 -0.7658
 3789UDC     C541673   5.388  10.003   6.767  1.2938  0.1447  0.7303
 3789UDC     C641674   5.420   9.975   6.914 -0.5196 -0.1164  1.6092
 3789UDC     C741675   5.572   9.967   6.941  0.8208  0.0484  0.2051
 3789UDC     C841676   5.655  10.095   6.927  0.3176 -0.0366 -0.8354
 3789UDC     C941677   5.807  10.082   6.915 -0.5347 -0.7859 -0.9736
 3789UDC    C1041678   5.864  10.008   7.036  0.6517  1.0963 -1.0141
 3789UDC    C1141679   6.010   9.951   7.006 -0.3265  0.1684 -0.8752
 3790UDC     C141680   3.295   5.169  13.236 -0.4967  0.4464  0.0009
 3790UDC     C241681   3.279   5.021  13.187  0.3728  0.0346  0.2519
 3790UDC     C341682   3.403   4.928  13.188  0.5385 -0.0007  0.0531
 3790UDC     C441683   3.371   4.816  13.088 -0.4066  0.4163  0.5776
 3790UDC     C541684   3.467   4.702  13.121 -0.0941 -0.2042 -1.1476
 3790UDC     C641685   3.479   4.620  12.992 -0.7661  0.2268 -0.7621
 3790UDC     C741686   3.527   4.711  12.878  0.5151  0.6815  0.5545
 3790UDC     C841687   3.486   4.635  12.745 -0.3708 -0.4792  0.5753
 3790UDC     C941688   3.489   4.706  12.611 -0.5171  0.3980 -0.9798
 3790UDC    C1041689   3.444   4.645  12.476  1.0812 -0.6324 -0.6659
 3790UDC    C1141690   3.481   4.758  12.373  0.1277  0.4879  0.3028
 3791UDC     C141691   3.067  10.534   2.517 -0.0738 -0.1636  0.6173
 3791UDC     C241692   3.115  10.491   2.379 -0.2597 -0.4039  0.4498
 3791UDC     C341693   3.259  10.449   2.346 -0.3906 -0.9025  0.7291
 3791UDC     C441694   3.313  10.544   2.235  0.7911 -0.3513 -0.3342
 3791UDC     C541695   3.329  10.696   2.272  0.9914  0.1929  0.1438
 3791UDC     C641696   3.478  10.740   2.292 -0.5239  1.0189 -0.1846
 3791UDC     C741697   3.482  10.858   2.386  0.5469 -0.6287 -0.3349
 3791UDC     C841698   3.632  10.873   2.423  0.3873 -0.1051 -0.3632
 3791UDC     C941699   3.705  11.000   2.379 -0.4809  0.4373  0.1948
 3791UDC    C1041700   3.840  11.023   2.445 -0.1506 -0.4079 -0.1926
 3791UDC    C1141701   3.920  11.124   2.359  0.3266 -0.5713  1.1722
 3792UDC     C141702  14.822  19.497   5.788 -0.1188 -0.2331  1.0355
 3792UDC     C241703  14.972  19.463   5.766  1.1430 -0.5292  0.2434
 3792UDC     C341704  15.055  19.329   5.782  0.0206  0.7330 -0.3859
 3792UDC     C441705  15.183  19.329   5.705 -0.7420 -0.0895 -0.0631
 3792UDC     C541706  15.257  19.197   5.731 -0.6819 -0.4485  0.7533
 3792UDC     C641707  15.311  19.197   5.876 -0.3290  0.3147 -0.2421
 3792UDC     C741708  15.376  19.067   5.920 -0.4271 -0.0482  0.3486
 3792UDC     C841709  15.297  18.935   5.915  1.0723 -0.8019 -0.1640
 3792UDC     C941710  15.361  18.844   6.013  0.1500  0.8946  0.4125
 3792UDC    C1041711  15.297  18.704   6.012 -0.3525  0.6823 -0.1629
 3792UDC    C1141712  15.378  18.606   5.928  1.0190  1.2387  0.0461
 3793UDC     C141713   5.355  17.541  13.197 -0.5366  0.5389  0.7561
 3793UDC     C241714   5.206  17.528  13.231 -0.3362 -0.6166  0.5156
 3793UDC     C341715   5.176  17.486  13.371  0.1615  0.2400 -1.0106
 3793UDC     C441716   5.193  17.595  13.480 -0.8076  0.4480  0.1174
 3793UDC     C541717   5.188  17.525  13.626  0.3934 -0.2221  0.8178
 3793UDC     C641718   5.305  17.425  13.647  0.8679 -0.2864 -1.1529
 3793UDC     C741719   5.367  17.431  13.796  1.1109 -0.0708  0.1789
 3793UDC     C841720   5.297  17.317  13.885  0.2570 -0.8791 -0.7238
 3793UDC     C941721   5.333  17.351  14.027  0.9553  0.3325  0.1210
 3793UDC    C1041722   5.250  17.271  14.124 -0.0878 -0.5397 -0.2924
 3793UDC    C1141723   5.100  17.264  14.103  1.0545 -0.8071  0.3875
 3794UDC     C141724  12.679   5.052   3.165  0.6200 -0.0664  0.0077
 3794UDC     C241725  12.641   5.173   3.252  0.2513 -0.6466  0.3662
 3794UDC     C341726  12.576   5.122   3.384 -0.1981 -0.2193 -0.3230
 3794UDC     C441727  12.479   5.229   3.428  0.5329 -0.3256 -0.5507
 3794UDC     C541728  12.557   5.340   3.485 -0.4752 -0.9903  0.8565
 3794UDC     C641729  12.589   5.331   3.633 -0.1835  0.4611 -0.1348
 3794UDC     C741730  12.651   5.451   3.704  0.4289 -0.0782 -0.4008
 3794UDC     C841731  12.575   5.587   3.681 -1.3576  1.5243 -1.7300
 3794UDC     C941732  12.458   5.621   3.777 -0.7707 -0.0413  0.1190
 3794UDC    C1041733  12.508   5.665   3.916 -0.5650  0.9565 -1.3458
 3794UDC    C1141734  12.606   5.781   3.892 -0.0836 -1.5822 -0.2513
 3795UDC     C141735  13.745   5.596   9.235  1.0994  0.2271  0.2490
 3795UDC     C241736  13.783   5.554   9.094 -1.3370 -0.1178 -0.4985
 3795UDC     C341737  13.685   5.579   8.985 -0.3774 -1.2160 -0.2460
 3795UDC     C441738  13.746   5.585   8.846 -0.2299 -0.0806  0.6108
 3795UDC     C541739  13.632   5.593   8.737  0.3708 -0.9978  0.0453
 3795UDC     C641740  13.546   5.472   8.712 -0.6985 -0.1855  0.5090
 3795UDC     C741741  13.409   5.499   8.644  0.5280  0.4323  1.0365
 3795UDC     C841742  13.330   5.376   8.600  0.7010 -1.3276 -0.6876
 3795UDC     C941743  13.215   5.398   8.499  0.6198  0.0105 -0.8894
 3795UDC    C1041744  13.139   5.524   8.557 -0.2767  2.1392 -0.8471
 3795UDC    C1141745  13.024   5.581   8.470 -0.8547  0.9617  0.1802
 3796UDC     C141746  18.220   0.319   3.158  1.0263 -0.5354 -0.6890
 3796UDC     C241747  18.303   0.451   3.170  0.3674 -0.8723  0.4504
 3796UDC     C341748  18.438   0.430   3.236 -0.0409 -0.5092 -0.4210
 3796UDC     C441749  18.538   0.541   3.261 -0.0035  0.7230 -0.6812
 3796UDC     C541750  18.463   0.666   3.313 -0.5493  0.8179 -0.2572
 3796UDC     C641751  18.542   0.771   3.396 -0.0108 -0.1669  0.4641
 3796UDC     C741752  18.455   0.865   3.480 -1.3100 -0.9706 -0.4859
 3796UDC     C841753  18.544   0.968   3.563 -0.1839  0.3238 -0.5823
 3796UDC     C941754  18.461   1.077   3.625 -0.4762  0.4260  0.3104
 3796UDC    C1041755  18.541   1.194   3.682 -0.0889  0.2723 -0.3014
 3796UDC    C1141756  18.444   1.264   3.780 -0.2950  0.4122  0.5755
 3797UDC     C141757  19.640   3.491   5.940  0.3395  0.6315 -0.4763
 3797UDC     C241758  19.577   3.429   6.064  0.4459  0.5073 -0.5780
 3797UDC     C341759  19.602   3.501   6.204 -0.4023  0.1418  0.2719
 3797UDC     C441760  19.751   3.490   6.249 -0.2817  0.5081  0.9480
 3797UDC     C541761  19.779   3.567   6.370 -0.0635  0.7122  0.0933
 3797UDC     C641762  19.882   3.507   6.468  0.3545  0.1792  0.4728
 3797UDC     C741763  19.822   3.392   6.562  0.6291  0.8295 -0.7126
 3797UDC     C841764  19.931   3.309   6.638 -0.0172  0.6732 -0.4466
 3797UDC     C941765  19.895   3.309   6.784  0.5473  0.4626  0.0254
 3797UDC    C1041766  19.996   3.249   6.885 -0.2136 -0.2115  0.4206
 3797UDC    C1141767  20.032   3.102   6.855  0.2528  0.7449 -1.1366
 3798UDC     C141768  12.616   1.630   5.015  0.1119  0.2880 -1.1612
 3798UDC     C241769  12.635   1.593   4.864  0.9646 -0.0569 -0.6495
 3798UDC     C341770  12.756   1.504   4.821  0.7952 -0.8825 -1.4163
 3798UDC     C441771  12.769   1.370   4.879 -0.2672  0.6595 -0.8790
 3798UDC     C541772  12.874   1.286   4.813 -0.1622  0.0026  1.3120
 3798UDC     C641773  13.018   1.323   4.858 -0.1748 -0.3214  0.5668
 3798UDC     C741774  13.138   1.233   4.809  0.0920 -0.6373  0.6218
 3798UDC     C841775  13.270   1.307   4.852  0.1730 -0.5654  1.4772
 3798UDC     C941776  13.390   1.305   4.753  0.1309  0.0157 -0.0778
 3798UDC    C1041777  13.523   1.241   4.814 -0.3680 -0.2262  0.6571
 3798UDC    C1141778  13.638   1.304   4.735 -1.0662 -0.6179 -0.9949
 3799UDC     C141779   3.931   2.649   7.320  0.3510 -0.2659 -0.0889
 3799UDC     C241780   3.788   2.637   7.372 -1.3783 -0.4238  0.2169
 3799UDC     C341781   3.752   2.492   7.373 -0.4407  1.1786  0.0864
 3799UDC     C441782   3.622   2.462   7.450 -0.3060 -0.1407 -0.0216
 3799UDC     C541783   3.538   2.352   7.384 -0.2437 -0.3793  0.5000
 3799UDC     C641784   3.397   2.316   7.432 -0.0888  0.4473  1.1731
 3799UDC     C741785   3.317   2.248   7.325  0.0300  0.6555  0.3237
 3799UDC     C841786   3.162   2.245   7.321 -0.0714  1.3071 -0.1016
 3799UDC     C941787   3.086   2.156   7.424 -0.6440 -0.0183  0.3957
 3799UDC    C1041788   2.933   2.147   7.376 -0.9990  1.4972 -0.2702
 3799UDC    C1141789   2.853   2.063   7.477  0.3905 -0.7708 -0.0918
 3800UDC     C141790  11.892  10.294  15.479  0.5252 -0.6272  0.3588
 3800UDC     C241791  11.757  10.352  15.532  0.0224 -0.6402  0.9526
 3800UDC     C341792  11.671  10.225  15.575  0.7412 -0.6390 -0.1064
 3800UDC     C441793  11.739  10.135  15.675 -0.0748 -0.4059 -0.1418
 3800UDC     C541794  11.635  10.059  15.770  0.0928  0.0762 -0.7798
 3800UDC     C641795  11.524  10.125  15.868  0.8237  1.1497 -0.5107
 3800UDC     C741796  11.457  10.015  15.955 -0.1911  0.0459 -0.1860
 3800UDC     C841797  11.511   9.979  16.099  0.1703  0.1673  0.9581
 3800UDC     C941798  11.426   9.858  16.161 -0.0864  0.3152 -1.0651
 3800UDC    C1041799  11.442   9.717  16.101  0.3729 -0.1212  1.1646
 3800UDC    C1141800  11.350   9.609  16.171 -0.6709  0.4301  1.1282
 3801UDC     C141801   8.491   5.612  16.724 -0.4768  0.1915  0.5224
 3801UDC     C241802   8.588   5.702  16.807 -0.8428  0.0833  0.2256
 3801UDC     C341803   8.517   5.836  16.835 -0.0408  0.0013  0.2514
 3801UDC     C441804   8.477   5.907  16.701  0.2847  0.5141 -1.5850
 3801UDC     C541805   8.366   6.004  16.719 -1.0559 -0.4166 -0.5504
 3801UDC     C641806   8.368   6.097  16.596 -0.3880 -0.5015 -0.2744
 3801UDC     C741807   8.357   6.245  16.647  0.6961  0.3915 -0.3162
 3801UDC     C841808   8.214   6.282  16.694  0.7071 -0.0839  0.2197
 3801UDC     C941809   8.191   6.435  16.705  0.3176 -1.2374 -0.6231
 3801UDC    C1041810   8.329   6.513  16.723  0.2434 -0.8408 -0.5015
 3801UDC    C1141811   8.330   6.620  16.836  0.9870  0.2380 -0.2179
 3802UDC     C141812   4.101  18.921  13.009 -0.3678 -1.1513  1.3051
 3802UDC     C241813   4.039  19.067  13.032  0.6374  0.4413 -0.5653
 3802UDC     C341814   3.907  19.044  13.107  0.3731 -0.3766 -1.2682
 3802UDC     C441815   3.852  19.165  13.188  0.1332  0.0994 -0.6891
 3802UDC     C541816   3.703  19.137  13.215  0.1324  0.1048 -0.3256
 3802UDC     C641817   3.700  19.040  13.339  0.0464 -0.6275  0.7900
 3802UDC     C741818   3.567  18.970  13.367  0.1671  0.7794 -0.2706
 3802UDC     C841819   3.450  19.061  13.406 -0.2999 -0.1026  0.1794
 3802UDC     C941820   3.355  18.991  13.507  0.8451  0.5852  1.7156
 3802UDC    C1041821   3.342  18.843  13.492  1.1338 -0.4399  0.8323
 3802UDC    C1141822   3.211  18.778  13.541  0.6091  0.4025 -0.2795
 3803UDC     C141823   0.011   3.908  11.926  0.8160 -0.2772  0.7420
 3803UDC     C241824  -0.062   4.039  11.960 -0.9462  0.8242 -0.1145
 3803UDC     C341825  -0.203   4.000  11.966 -0.6310  0.2279  0.4164
 3803UDC     C441826  -0.295   4.116  12.004 -0.5935 -0.2884 -0.1300
 3803UDC     C541827  -0.450   4.089  12.020 -0.4211  0.8857  0.1216
 3803UDC     C641828  -0.535   4.219  12.002 -0.0517 -0.6805  0.5530
 3803UDC     C741829  -0.677   4.180  12.038  0.9953 -1.1593  0.5184
 3803UDC     C841830  -0.764   4.293  11.986 -0.5454  0.5766  1.1046
 3803UDC     C941831  -0.904   4.294  12.054  0.7269 -0.4198  0.3853
 3803UDC    C1041832  -1.013   4.376  11.989  0.5974 -0.5241  0.3838
 3803UDC    C1141833  -1.164   4.340  12.037 -0.8328  1.0182  0.1727
 3804UDC     C141834   6.098  19.614   8.254 -0.5057  0.1009 -0.7845
 3804UDC     C241835   6.077  19.708   8.135  0.9578 -1.3623  0.5540
 3804UDC     C341836   6.191  19.754   8.039 -0.4615  0.3556 -0.4433
 3804UDC     C441837   6.288  19.643   7.999  0.3305 -0.2453 -0.1830
 3804UDC     C541838   6.415  19.697   7.938  0.5702  0.7817  0.1809
 3804UDC     C641839   6.395  19.829   7.856 -0.2468 -0.4923 -0.4706
 3804UDC     C741840   6.496  19.835   7.743  0.1805 -0.1614  0.1877
 3804UDC     C841841   6.428  19.872   7.614  0.3305  0.5878 -0.3749
 3804UDC     C941842   6.506  19.919   7.492  0.0858 -0.0792 -0.4800
 3804UDC    C1041843   6.430  19.865   7.363  0.5730  0.3932 -1.0270
 3804UDC    C1141844   6.487  19.895   7.222  0.0418 -0.6643 -0.4424
 3805UDC     C141845  11.390   8.142   4.688 -1.5917  0.1995  0.5588
 3805UDC     C241846  11.448   8.137   4.826  0.2127 -0.2448 -0.1206
 3805UDC     C341847  11.453   7.999   4.888  0.4152  0.2255  0.0264
 3805UDC     C441848  11.495   8.004   5.043  0.5217 -0.8724  0.3186
 3805UDC     C541849  11.550   7.889   5.116  0.3688  0.1827  0.2800
 3805UDC     C641850  11.428   7.799   5.158 -0.1004  0.2208  0.1580
 3805UDC     C741851  11.441   7.741   5.303 -0.3792  0.2017  0.5436
 3805UDC     C841852  11.309   7.662   5.339 -1.2496  0.5325 -0.9590
 3805UDC     C941853  11.319   7.576   5.473 -0.0243 -0.2154 -0.2768
 3805UDC    C1041854  11.201   7.479   5.492 -1.2498 -0.7197  0.9989
 3805UDC    C1141855  11.182   7.368   5.387  0.1741  1.0380  0.4535
 3806UDC     C141856  19.057  18.591  17.856 -0.0646 -0.6745  0.2118
 3806UDC     C241857  18.969  18.641  17.975  0.0348 -1.0248  1.3629
 3806UDC     C341858  18.907  18.783  17.961 -0.6494 -0.2227  0.1324
 3806UDC     C441859  18.786  18.778  17.865 -0.1628  0.0375  0.2801
 3806UDC     C541860  18.657  18.846  17.912  0.0377  0.3971 -0.3806
 3806UDC     C641861  18.546  18.861  17.801 -0.4747 -0.5738  0.6139
 3806UDC     C741862  18.525  18.727  17.730  0.9340 -1.7395 -0.3608
 3806UDC     C841863  18.398  18.707  17.645 -0.5074  0.5486  0.5549
 3806UDC     C941864  18.430  18.727  17.492 -0.1669  0.6457 -0.2368
 3806UDC    C1041865  18.337  18.641  17.397 -0.7693 -0.3144 -0.6902
 3806UDC    C1141866  18.315  18.496  17.440 -0.1457 -0.4148 -0.7830
 3807UDC     C141867  18.040   2.583  10.105  0.8331 -0.2805  0.4830
 3807UDC     C241868  18.042   2.616   9.957  0.0071 -1.2760  0.1341
 3807UDC     C341869  18.167   2.559   9.884  0.2397 -1.1209 -0.2145
 3807UDC     C441870  18.138   2.544   9.732  1.0302 -0.5816 -0.0491
 3807UDC     C541871  18.082   2.678   9.672  0.2055  0.5295 -0.2694
 3807UDC     C641872  18.167   2.777   9.604 -1.2519 -0.4958  0.1924
 3807UDC     C741873  18.094   2.903   9.547 -0.5012  0.3174  0.1564
 3807UDC     C841874  18.192   2.994   9.478 -0.5122  0.7416 -0.2778
 3807UDC     C941875  18.299   2.907   9.407 -0.9563  0.1096 -1.3675
 3807UDC    C1041876  18.343   2.953   9.267  0.3172  0.3015 -0.2929
 3807UDC    C1141877  18.419   3.087   9.268 -0.3309  0.0438  0.2072
 3808UDC     C141878  13.849  10.244   6.803 -0.2722 -2.1315  0.0381
 3808UDC     C241879  13.761  10.287   6.920 -0.4432  0.3857  0.7274
 3808UDC     C341880  13.613  10.269   6.905  0.5536 -0.8642  0.0951
 3808UDC     C441881  13.542  10.269   7.037 -0.2475  0.3446  1.0444
 3808UDC     C541882  13.411  10.335   7.013 -0.0524 -0.8398  0.0086
 3808UDC     C641883  13.385  10.409   6.880 -0.2160  0.4197 -0.3763
 3808UDC     C741884  13.246  10.471   6.854  0.7186 -0.3348 -0.6543
 3808UDC     C841885  13.276  10.599   6.771  0.9049 -1.1248  0.0931
 3808UDC     C941886  13.337  10.583   6.627 -0.2454  0.4680  0.5879
 3808UDC    C1041887  13.299  10.706   6.533 -0.7866  0.4426 -0.6912
 3808UDC    C1141888  13.165  10.661   6.477  0.7007  0.2685 -1.2337
 3809UDC     C141889  16.360  11.914  14.673 -0.0125  1.3107 -1.0732
 3809UDC     C241890  16.295  12.013  14.583  0.9205 -0.5836  0.0476
 3809UDC     C341891  16.281  12.003  14.429  0.0263  1.0091 -0.7785
 3809UDC     C441892  16.157  11.945  14.352  0.4459  0.0257 -0.4156
 3809UDC     C541893  16.138  11.792  14.356  0.6606 -0.1335  0.0072
 3809UDC     C641894  16.050  11.709  14.263  0.1483 -0.1402 -0.1447
 3809UDC     C741895  16.111  11.690  14.123 -0.1033 -0.0297 -0.5106
 3809UDC     C841896  16.229  11.595  14.139 -0.5032  0.8793  0.6918
 3809UDC     C941897  16.364  11.616  14.070  0.7451  0.5768 -1.0221
 3809UDC    C1041898  16.463  11.705  14.144  0.5784  0.4667 -0.1220
 3809UDC    C1141899  16.580  11.758  14.064  0.0188  0.3059  0.2227
 3810UDC     C141900   0.181   4.409  18.573 -0.1047 -0.2306  0.3020
 3810UDC     C241901   0.132   4.428  18.424 -1.1724 -0.8225  0.3367
 3810UDC     C341902   0.227   4.389  18.315 -0.6119  0.0799 -0.3229
 3810UDC     C441903   0.283   4.243  18.322  0.0534 -0.0681 -0.0710
 3810UDC     C541904   0.403   4.226  18.233  0.0102 -0.2386 -0.0331
 3810UDC     C641905   0.540   4.255  18.287 -0.9021  0.5333  0.1896
 3810UDC     C741906   0.567   4.180  18.419 -0.0294  0.1724 -0.2459
 3810UDC     C841907   0.687   4.216  18.500 -0.4058  0.5111 -1.1881
 3810UDC     C941908   0.829   4.199  18.454 -0.0339 -0.0176  0.8237
 3810UDC    C1041909   0.919   4.265  18.565  0.2465 -0.1694  0.3197
 3810UDC    C1141910   0.901   4.204  18.715  0.2911 -0.1721  0.1798
 3811UDC     C141911   0.033  19.118  19.025 -0.4046 -0.6586  0.2895
 3811UDC     C241912   0.044  19.177  18.887 -0.0475 -0.0438  1.0548
 3811UDC     C341913   0.177  19.137  18.822 -0.8856 -0.4653 -0.3667
 3811UDC     C441914   0.191  19.210  18.686  0.4225  0.7170  0.7248
 3811UDC     C541915   0.192  19.104  18.575 -0.2405  0.3591 -0.0286
 3811UDC     C641916   0.195  19.178  18.440  0.1945 -0.2015  0.0128
 3811UDC     C741917   0.137  19.081  18.332  0.3107 -0.5783  0.7335
 3811UDC     C841918   0.202  18.941  18.319  0.4253 -0.2895  0.4425
 3811UDC     C941919   0.201  18.889  18.180 -0.2137 -0.8662 -0.2486
 3811UDC    C1041920   0.240  18.739  18.190 -0.4353 -0.3130  0.3712
 3811UDC    C1141921   0.173  18.642  18.292  0.7906 -0.2518 -0.3331
 3812UDC     C141922  17.296   8.657  15.805  0.4427  0.6674 -0.7068
 3812UDC     C241923  17.335   8.518  15.752  0.1533  0.4746  1.0553
 3812UDC     C341924  17.398   8.420  15.849 -0.2792  0.7222 -0.0157
 3812UDC     C441925  17.549   8.449  15.871  0.0028 -1.0187  1.1370
 3812UDC     C541926  17.615   8.350  15.967  0.1791 -0.3681  1.2518
 3812UDC     C641927  17.765   8.378  15.992  0.2116 -0.4903  0.6588
 3812UDC     C741928  17.774   8.485  16.104 -0.5681 -0.7651 -0.0737
 3812UDC     C841929  17.796   8.450  16.251  0.3927  0.4215  0.5255
 3812UDC     C941930  17.807   8.575  16.343  0.6495 -0.4766  0.4100
 3812UDC    C1041931  17.952   8.603  16.378  1.1089  0.4054  0.5634
 3812UDC    C1141932  17.983   8.717  16.474  1.1549  0.2083  0.6793
 3813UDC     C141933  16.507   2.224   8.944 -0.6646  0.1121 -0.2548
 3813UDC     C241934  16.466   2.235   8.792  0.7508  0.3519  0.3986
 3813UDC     C341935  16.593   2.228   8.712 -0.3292 -0.8715  0.0216
 3813UDC     C441936  16.555   2.251   8.566  0.0634  0.1489  0.3532
 3813UDC     C541937  16.440   2.159   8.520 -0.5619  1.0582 -0.1221
 3813UDC     C641938  16.372   2.164   8.381 -0.1697 -0.0627 -0.3991
 3813UDC     C741939  16.226   2.108   8.406 -0.1547  0.0541 -0.3993
 3813UDC     C841940  16.127   2.209   8.449  0.7102 -0.2490 -0.0968
 3813UDC     C941941  16.068   2.291   8.334 -0.3885 -1.2404 -0.3057
 3813UDC    C1041942  15.916   2.277   8.319  0.4531  0.4744 -0.5873
 3813UDC    C1141943  15.822   2.394   8.344 -0.0267  1.3796  0.2461
 3814UDC     C141944  15.563   4.170  14.522 -0.6922 -0.5578 -0.4298
 3814UDC     C241945  15.511   4.116  14.661  0.7329  0.1477  0.6853
 3814UDC     C341946  15.558   4.203  14.776  0.8239 -0.3281 -0.0236
 3814UDC     C441947  15.713   4.201  14.774 -1.0234  0.0007 -1.6464
 3814UDC     C541948  15.789   4.252  14.903  0.8540  0.7761  0.3891
 3814UDC     C641949  15.940   4.257  14.905  0.2454  0.7628  0.6068
 3814UDC     C741950  15.992   4.241  15.049 -0.9082 -0.6211  0.9983
 3814UDC     C841951  16.101   4.144  15.087 -0.2222  1.2511  0.5047
 3814UDC     C941952  16.172   4.221  15.200  0.7292 -0.8807 -0.0192
 3814UDC    C1041953  16.201   4.366  15.150  0.5276 -0.1411  0.3702
 3814UDC    C1141954  16.274   4.461  15.251 -0.5984  0.0082 -0.7276
 3815UDC     C141955   6.250   6.554   1.174 -0.3750 -0.2654 -0.6584
 3815UDC     C241956   6.142   6.645   1.223 -1.3216 -0.6897 -0.5118
 3815UDC     C341957   6.078   6.723   1.109  0.2511 -0.9217  0.1656
 3815UDC     C441958   5.978   6.848   1.136  0.0324  0.3563  1.1453
 3815UDC     C541959   5.832   6.800   1.169 -0.1773 -0.5396 -0.4054
 3815UDC     C641960   5.750   6.917   1.228  0.9494 -1.0195  0.6298
 3815UDC     C741961   5.606   6.920   1.169 -0.7699 -0.6585 -0.1718
 3815UDC     C841962   5.528   6.799   1.210  0.5938 -0.1911 -0.0332
 3815UDC     C941963   5.372   6.794   1.197  0.6037 -0.0493  0.4661
 3815UDC    C1041964   5.320   6.653   1.249 -0.0277  0.3691 -1.5649
 3815UDC    C1141965   5.393   6.558   1.150 -0.0003  0.2846  1.0313
 3816UDC     C141966  19.375   9.486   4.567  0.4127  0.1152 -0.4556
 3816UDC     C241967  19.350   9.337   4.557  0.3436  0.2767 -0.2055
 3816UDC     C341968  19.212   9.304   4.503  0.0013 -0.4254  0.2813
 3816UDC     C441969  19.149   9.422   4.427 -0.5741 -1.1847 -0.2813
 3816UDC     C541970  19.011   9.389   4.362 -0.0185  0.2715 -0.0816
 3816UDC     C641971  18.952   9.514   4.302  0.8564 -0.6584 -1.1104
 3816UDC     C741972  18.859   9.593   4.405  0.4066  0.6043 -0.0598
 3816UDC     C841973  18.745   9.506   4.458 -1.3766  0.5992 -0.1635
 3816UDC     C941974  18.647   9.556   4.569  0.4503 -0.0198  0.7436
 3816UDC    C1041975  18.507   9.620   4.542 -0.3019 -0.3906  0.0356
 3816UDC    C1141976  18.515   9.760   4.477  0.0015 -0.8196 -0.4051
 3817UDC     C141977   1.613   1.661   9.505 -0.7642  0.1930 -0.8496
 3817UDC     C241978   1.732   1.591   9.567 -0.1124  0.2222 -0.5155
 3817UDC     C341979   1.791   1.467   9.510 -0.0423 -0.2312 -0.2541
 3817UDC     C441980   1.933   1.437   9.566 -0.8876  0.2817 -0.1165
 3817UDC     C541981   1.938   1.480   9.716  0.7132 -0.2194  0.7349
 3817UDC     C641982   2.081   1.500   9.766  0.3443  0.7095  0.0932
 3817UDC     C741983   2.095   1.528   9.916  0.7207 -0.0540 -0.5128
 3817UDC     C841984   2.049   1.670   9.936  0.0332  0.5410  0.4774
 3817UDC     C941985   2.047   1.732  10.082  0.2900  0.2023 -0.2544
 3817UDC    C1041986   2.016   1.881  10.089 -0.1580 -1.1313  0.5167
 3817UDC    C1141987   1.959   1.947  10.215  0.0947  0.1667  1.8534
 3818UDC     C141988   1.158  18.473   7.895  0.2781 -0.2851  0.7768
 3818UDC     C241989   1.154  18.625   7.935  0.6187  0.1789  0.5293
 3818UDC     C341990   1.028  18.687   7.992 -0.4680 -0.9839 -0.1503
 3818UDC     C441991   1.032  18.836   8.023  0.0487  0.7575  0.5603
 3818UDC     C541992   1.009  18.928   7.902  0.4415  0.4418 -0.1337
 3818UDC     C641993   0.875  18.887   7.838 -0.2024 -1.0564  0.9057
 3818UDC     C741994   0.849  18.973   7.711  0.4402 -0.7815  0.2508
 3818UDC     C841995   0.944  18.934   7.598  0.2693  0.4287 -0.6757
 3818UDC     C941996   0.926  18.989   7.454 -0.4772  0.5418 -0.1466
 3818UDC    C1041997   1.020  18.944   7.338 -0.4058  0.7131  0.3024
 3818UDC    C1141998   0.939  18.935   7.208  0.0876  0.6301  0.4747
 3819UDC     C141999   0.206   7.364  14.163 -0.0385 -0.0843  0.3659
 3819UDC     C242000   0.330   7.444  14.114  0.1609  0.3515 -0.7164
 3819UDC     C342001   0.322   7.588  14.153 -0.5733 -0.6162 -0.8359
 3819UDC     C442002   0.290   7.621  14.302  0.5105 -0.1155  0.4423
 3819UDC     C542003   0.366   7.565  14.428  1.2992 -0.4576  0.2872
 3819UDC     C642004   0.329   7.649  14.557  0.1242  0.3491  0.3352
 3819UDC     C742005   0.332   7.557  14.680 -0.4962  0.0268 -0.7912
 3819UDC     C842006   0.330   7.631  14.820  1.0461 -0.9411 -0.4917
 3819UDC     C942007   0.422   7.537  14.894  0.5865  0.3662  0.4960
 3819UDC    C1042008   0.467   7.586  15.034  1.0184 -0.6727 -0.0222
 3819UDC    C1142009   0.537   7.457  15.091 -0.1648 -0.6631  0.5879
 3820UDC     C142010  15.197   2.295  17.207  0.6634 -0.3068 -0.0478
 3820UDC     C242011  15.180   2.295  17.362  0.3110  1.2604  0.3781
 3820UDC     C342012  15.138   2.167  17.430 -0.1860 -0.3583  0.6562
 3820UDC     C442013  15.081   2.187  17.575 -1.2165 -1.2776 -0.2360
 3820UDC     C542014  14.954   2.103  17.607 -0.4798 -1.2195 -0.7743
 3820UDC     C642015  14.852   2.140  17.497  0.9707 -0.6375 -0.0897
 3820UDC     C742016  14.716   2.081  17.535 -0.6593 -0.0421 -0.1540
 3820UDC     C842017  14.712   1.927  17.553 -0.1091 -0.0233 -0.1957
 3820UDC     C942018  14.651   1.880  17.419 -0.4776  0.0539 -0.2165
 3820UDC    C1042019  14.670   1.730  17.377  0.1862 -0.7379  0.2468
 3820UDC    C1142020  14.731   1.718  17.240 -0.2799  0.0392 -0.2510
 3821UDC     C142021   2.645  16.874   2.558  0.2948 -0.5053  0.2269
 3821UDC     C242022   2.493  16.883   2.581 -0.3696  0.5969  0.0389
 3821UDC     C342023   2.431  16.970   2.689  0.3361  0.7377 -1.0042
 3821UDC     C442024   2.346  17.097   2.648  0.7597  0.5671 -0.4758
 3821UDC     C542025   2.291  17.152   2.786  0.5341  0.9995  0.5621
 3821UDC     C642026   2.178  17.263   2.779 -0.4722  0.9261  0.0868
 3821UDC     C742027   2.095  17.242   2.908  0.3416 -0.5224  0.5204
 3821UDC     C842028   1.987  17.352   2.926 -1.8708  0.5336 -0.3062
 3821UDC     C942029   2.028  17.496   2.926 -0.6394 -0.2097 -0.7544
 3821UDC    C1042030   1.913  17.589   2.955  0.2195  0.1151 -0.5823
 3821UDC    C1142031   1.831  17.558   3.082  0.2943 -0.6104  1.1294
 3822UDC     C142032  10.704   7.576  13.332  0.2121 -0.8408  0.4953
 3822UDC     C242033  10.784   7.589  13.462  1.1595  0.7529 -0.0798
 3822UDC     C342034  10.695   7.617  13.585 -0.2275 -1.5629  0.3300
 3822UDC     C442035  10.773   7.632  13.717  0.3517  0.8295  0.2422
 3822UDC     C542036  10.785   7.498  13.785 -0.0068 -0.5141  0.2654
 3822UDC     C642037  10.686   7.410  13.713  0.5628  0.5449  0.3676
 3822UDC     C742038  10.612   7.296  13.791 -0.0152 -0.4921  0.1179
 3822UDC     C842039  10.540   7.352  13.919 -0.3020  0.2261  0.1114
 3822UDC     C942040  10.441   7.257  13.997 -0.0221 -0.4823 -0.1759
 3822UDC    C1042041  10.321   7.330  14.048 -0.1356 -0.4467 -0.8611
 3822UDC    C1142042  10.342   7.467  14.115 -0.4524  0.3638 -0.5139
 3823UDC     C142043  18.698   8.907   5.090  0.3180 -0.6787  0.2630
 3823UDC     C242044  18.567   8.844   5.152 -0.8372 -0.1040 -0.8912
 3823UDC     C342045  18.547   8.706   5.096  0.2619 -0.4108  1.1979
 3823UDC     C442046  18.593   8.697   4.948  0.2346  0.8098 -0.1335
 3823UDC     C542047  18.550   8.566   4.885  1.1989 -0.0721 -1.0269
 3823UDC     C642048  18.606   8.433   4.940  1.0353  0.0442  0.0258
 3823UDC     C742049  18.596   8.296   4.859  0.1885 -0.6807 -0.5846
 3823UDC     C842050  18.704   8.184   4.868 -0.0964  0.0987  0.0568
 3823UDC     C942051  18.630   8.051   4.863  0.9965 -0.2648 -0.9335
 3823UDC    C1042052  18.542   8.045   4.741  0.8479 -0.5906  0.4600
 3823UDC    C1142053  18.482   7.908   4.701 -0.5742 -0.2955  0.2521
 3824UDC     C142054   7.499   5.728  12.809 -0.6666  0.1427  0.3015
 3824UDC     C242055   7.398   5.789  12.908  0.3418 -0.4992 -0.2464
 3824UDC     C342056   7.261   5.816  12.838 -0.1119  0.9961 -0.2318
 3824UDC     C442057   7.240   5.964  12.804 -0.4094 -0.1240 -0.4914
 3824UDC     C542058   7.246   5.990  12.652 -0.0511 -0.3543 -0.5035
 3824UDC     C642059   7.177   6.113  12.591  0.9728  0.1177 -0.5027
 3824UDC     C742060   7.218   6.248  12.647  0.7038 -0.4387 -0.1707
 3824UDC     C842061   7.124   6.349  12.587 -1.1744  0.6241 -0.2283
 3824UDC     C942062   7.195   6.489  12.583 -0.5971  1.6474 -0.2858
 3824UDC    C1042063   7.291   6.502  12.459 -0.6711  0.1042 -0.7578
 3824UDC    C1142064   7.398   6.618  12.467 -1.0861 -0.0674  0.2704
 3825UDC     C142065   5.717  12.755   6.935 -0.8766 -0.5142 -0.0464
 3825UDC     C242066   5.765  12.608   6.958 -0.0277 -1.0083 -0.9196
 3825UDC     C342067   5.675  12.490   6.934 -0.5860  0.2084  0.0063
 3825UDC     C442068   5.756  12.378   6.870  0.4045  0.6891 -0.2511
 3825UDC     C542069   5.824  12.271   6.968 -0.4486  0.4857 -0.4121
 3825UDC     C642070   5.747  12.180   7.061 -0.9732  0.2399  1.1470
 3825UDC     C742071   5.861  12.128   7.157  0.4401 -0.3904 -0.9781
 3825UDC     C842072   5.848  12.215   7.287 -0.7452 -0.2061  0.1636
 3825UDC     C942073   5.917  12.165   7.418 -0.2064 -0.1354 -1.4370
 3825UDC    C1042074   5.892  12.020   7.439  0.4236  0.6207  0.0246
 3825UDC    C1142075   5.934  11.982   7.587  1.4639 -0.6139  0.2564
 3826UDC     C142076   1.630  18.898  14.308 -0.3388  0.2565 -0.4451
 3826UDC     C242077   1.704  18.813  14.418 -0.4971 -0.1828  0.9694
 3826UDC     C342078   1.782  18.915  14.503  0.6761 -0.8864 -0.1363
 3826UDC     C442079   1.885  18.852  14.596  0.5549  0.6014 -0.8013
 3826UDC     C542080   1.978  18.958  14.653 -0.2860  0.1020  0.6133
 3826UDC     C642081   2.079  18.939  14.767  0.8633 -0.3892  0.1916
 3826UDC     C742082   2.028  18.921  14.906  0.0119  0.1128 -0.3923
 3826UDC     C842083   2.090  19.015  15.010 -0.0559  0.7773  0.6222
 3826UDC     C942084   1.990  19.044  15.123  0.1068 -0.8036 -0.1328
 3826UDC    C1042085   1.964  18.912  15.198 -0.1178  0.8306 -0.5485
 3826UDC    C1142086   2.080  18.853  15.267  0.1999  0.7171  0.2642
 3827UDC     C142087   2.502  14.391   8.465 -0.5408  0.2687 -0.2417
 3827UDC     C242088   2.618  14.491   8.483  0.0481  0.2223 -0.1018
 3827UDC     C342089   2.609  14.552   8.623 -0.1658  0.7511  0.4704
 3827UDC     C442090   2.465  14.556   8.691  0.3620  0.6295 -0.2964
 3827UDC     C542091   2.462  14.604   8.837 -0.2278 -0.2280  0.6353
 3827UDC     C642092   2.332  14.599   8.922  0.1747  0.8833  0.5070
 3827UDC     C742093   2.199  14.655   8.882 -0.3254 -0.2920 -1.1837
 3827UDC     C842094   2.122  14.603   8.761  0.2067  0.7600 -0.7078
 3827UDC     C942095   1.975  14.659   8.755  0.6227  1.3118  0.3403
 3827UDC    C1042096   1.881  14.654   8.879 -0.6142 -0.1977  0.4192
 3827UDC    C1142097   1.843  14.511   8.936 -0.4946  0.9083 -0.0181
 3828UDC     C142098  19.773  13.679  12.726 -0.4299  0.1072  0.0224
 3828UDC     C242099  19.764  13.549  12.811 -0.5476  1.5645 -0.5525
 3828UDC     C342100  19.842  13.424  12.749  1.0893  0.2767 -0.3970
 3828UDC     C442101  19.792  13.372  12.613  0.5934 -0.2074 -0.2261
 3828UDC     C542102  19.898  13.413  12.508  0.8988 -0.2120 -1.7718
 3828UDC     C642103  20.046  13.372  12.527 -1.1382  0.0217  0.0168
 3828UDC     C742104  20.159  13.418  12.435  0.3664  0.1860  0.3863
 3828UDC     C842105  20.297  13.355  12.456  0.2040 -0.0401 -0.8227
 3828UDC     C942106  20.416  13.426  12.373 -1.2667  0.2905 -0.0444
 3828UDC    C1042107  20.545  13.370  12.446  0.4542 -0.4352 -0.3458
 3828UDC    C1142108  20.682  13.384  12.379  0.1438 -0.0231  0.5253
 3829UDC     C142109  10.941  16.003   1.692  0.0222  1.0047  1.1211
 3829UDC     C242110  11.021  16.084   1.785 -0.2301  0.7713 -0.0322
 3829UDC     C342111  11.006  16.058   1.930 -0.1855  0.0554 -0.1428
 3829UDC     C442112  10.900  16.162   1.974  0.6914 -0.2022  0.4703
 3829UDC     C542113  10.793  16.108   2.073  0.2411 -0.3139 -0.1948
 3829UDC     C642114  10.848  16.073   2.212  0.8631 -0.5844 -1.5901
 3829UDC     C742115  10.759  16.095   2.330  0.2122  0.1754 -1.2525
 3829UDC     C842116  10.779  16.228   2.410  0.1637 -0.8659  0.9766
 3829UDC     C942117  10.937  16.256   2.424  0.2538  0.4676  0.6219
 3829UDC    C1042118  10.954  16.381   2.516  0.2779  0.0357  0.6398
 3829UDC    C1142119  11.103  16.418   2.519  0.6123 -0.2219  0.3605
 3830UDC     C142120  13.912  13.579  16.342  0.1366 -0.0671 -0.1710
 3830UDC     C242121  13.785  13.499  16.396  0.9266  1.2032  1.2088
 3830UDC     C342122  13.681  13.585  16.457  0.9529  0.1734  0.1264
 3830UDC     C442123  13.561  13.494  16.500  1.0177 -0.4625 -0.1090
 3830UDC     C542124  13.428  13.561  16.543 -0.7460 -0.2501 -0.1483
 3830UDC     C642125  13.325  13.454  16.593  0.0043 -0.6776 -0.1976
 3830UDC     C742126  13.211  13.406  16.505 -0.7546  0.3008 -1.4286
 3830UDC     C842127  13.082  13.489  16.507  0.3038  0.1602 -0.6823
 3830UDC     C942128  12.986  13.470  16.626 -1.4590 -0.8984  1.5362
 3830UDC    C1042129  12.861  13.552  16.642 -0.4115  0.6593  0.0369
 3830UDC    C1142130  12.796  13.546  16.787 -0.1370  0.3950 -0.1163
 3831UDC     C142131  12.244   6.696   7.926 -0.7012  1.6709 -0.2007
 3831UDC     C242132  12.241   6.759   8.067 -0.4488  0.1468  0.4031
 3831UDC     C342133  12.359   6.735   8.157 -0.9198  0.2959 -0.3095
 3831UDC     C442134  12.495   6.808   8.144 -0.4184  0.3314  0.2390
 3831UDC     C542135  12.622   6.725   8.167  0.0334  0.7297 -0.1828
 3831UDC     C642136  12.719   6.802   8.264 -0.1661 -0.2126 -0.4363
 3831UDC     C742137  12.864   6.737   8.272 -0.2164 -0.7373 -0.9754
 3831UDC     C842138  12.968   6.810   8.364 -1.4458 -1.0633  0.3100
 3831UDC     C942139  12.943   6.854   8.512  0.3335  0.0281  0.5863
 3831UDC    C1042140  13.052   6.842   8.622  0.1077  1.3457  0.3594
 3831UDC    C1142141  13.009   6.874   8.768  0.5545  0.4100  1.4109
 3832UDC     C142142   2.274  17.998  13.652 -0.8003  0.1884  0.2471
 3832UDC     C242143   2.158  17.911  13.707 -0.3251  0.4971  0.5753
 3832UDC     C342144   2.042  17.963  13.786  0.4705  1.3878 -0.4020
 3832UDC     C442145   1.931  17.860  13.819 -0.5367 -0.1997 -0.8147
 3832UDC     C542146   1.976  17.733  13.894  0.9152  0.5264  0.7743
 3832UDC     C642147   1.857  17.667  13.972 -0.6347  0.5759  0.4329
 3832UDC     C742148   1.795  17.771  14.068  0.1701  0.7686  1.0864
 3832UDC     C842149   1.903  17.812  14.165 -0.4471  0.1982 -0.2615
 3832UDC     C942150   1.926  17.704  14.279  0.1861  0.1021  0.0846
 3832UDC    C1042151   1.808  17.663  14.372 -0.2049  0.0132  0.8754
 3832UDC    C1142152   1.833  17.541  14.465 -0.5496 -0.4851  0.1696
 3833UDC     C142153   7.201  10.893  18.492  0.3500  0.1708 -0.2000
 3833UDC     C242154   7.270  10.848  18.361  0.3754  0.2360  0.6326
 3833UDC     C342155   7.383  10.938  18.306 -0.6462 -0.6063  0.3788
 3833UDC     C442156   7.493  10.864  18.236  0.5684 -0.6902  1.2363
 3833UDC     C542157   7.606  10.956  18.181 -0.0060 -1.0409  1.4547
 3833UDC     C642158   7.545  11.067  18.092 -0.3097  0.5230 -0.1367
 3833UDC     C742159   7.645  11.166  18.041  0.3138 -0.6845 -0.7122
 3833UDC     C842160   7.765  11.132  17.950 -0.2265  0.4610  1.0556
 3833UDC     C942161   7.885  11.232  17.925  0.5445 -1.2914  0.3916
 3833UDC    C1042162   8.003  11.206  17.829 -0.8301  0.2492 -0.0898
 3833UDC    C1142163   8.108  11.112  17.899  0.3688 -0.0322  1.0476
 3834UDC     C142164   9.489   2.204  14.883  1.1377  0.9196 -0.2909
 3834UDC     C242165   9.643   2.220  14.900  0.6767  0.0464 -0.1320
 3834UDC     C342166   9.696   2.088  14.926  0.3567  0.8470 -0.3253
 3834UDC     C442167   9.642   2.001  14.813 -0.8654 -0.0935  0.9763
 3834UDC     C542168   9.637   1.850  14.835  0.8677  0.5895  0.7586
 3834UDC     C642169   9.598   1.788  14.697 -0.9198 -0.0803 -0.4445
 3834UDC     C742170   9.691   1.841  14.587 -0.9526  0.8531 -0.5303
 3834UDC     C842171   9.834   1.778  14.604 -0.3268 -0.7523  0.9995
 3834UDC     C942172   9.936   1.808  14.486  0.3793 -0.3720 -0.5701
 3834UDC    C1042173  10.029   1.688  14.455 -0.0411 -1.1887 -0.2508
 3834UDC    C1142174  10.092   1.692  14.314  0.6949  0.3253  0.3732
 3835UDC     C142175  15.055  19.949  11.095 -0.6062  0.3546 -0.3315
 3835UDC     C242176  14.982  19.859  10.982  0.1257 -0.1809 -0.1436
 3835UDC     C342177  14.838  19.819  11.013  1.0304  0.4600 -0.7870
 3835UDC     C442178  14.836  19.675  11.057  0.2405  0.6607 -0.1907
 3835UDC     C542179  14.786  19.655  11.207 -0.5756  0.5785  0.3086
 3835UDC     C642180  14.873  19.726  11.313  0.4395  0.0160  0.8316
 3835UDC     C742181  14.811  19.812  11.431 -0.7790 -0.4195  0.6381
 3835UDC     C842182  14.905  19.920  11.480  0.7966 -0.6719  0.9278
 3835UDC     C942183  14.985  19.915  11.613  0.2867  0.2799  1.0991
 3835UDC    C1042184  14.897  19.884  11.729  0.3227 -0.4983 -0.8421
 3835UDC    C1142185  14.776  19.983  11.771 -1.0011  0.2544 -0.8341
 3836UDC     C142186   0.252   5.892  16.698 -0.0233  0.6404 -1.5869
 3836UDC     C242187   0.236   5.735  16.718  1.1307 -1.2846 -0.7417
 3836UDC     C342188   0.224   5.682  16.864 -1.1571 -0.4759  0.0399
 3836UDC     C442189   0.223   5.531  16.871 -0.9329  0.5288 -0.6097
 3836UDC     C542190   0.350   5.486  16.957  0.3688  0.0385 -0.0562
 3836UDC     C642191   0.362   5.335  16.970 -0.4066  0.4836 -0.1931
 3836UDC     C742192   0.267   5.289  17.088 -0.2174 -0.5412  1.2462
 3836UDC     C842193   0.315   5.148  17.135  0.7359  0.7086  0.1479
 3836UDC     C942194   0.453   5.128  17.201 -0.0451  0.3970  0.1769
 3836UDC    C1042195   0.507   4.984  17.228 -0.2577  0.4980 -2.0287
 3836UDC    C1142196   0.618   4.932  17.134 -0.3024  0.2255 -0.3579
 3837UDC     C142197   5.073   8.031  12.743  0.4604  0.9617 -0.0547
 3837UDC     C242198   5.069   7.923  12.853 -0.2790 -0.3299  0.3399
 3837UDC     C342199   4.940   7.928  12.944 -0.5697 -0.8022 -0.1505
 3837UDC     C442200   4.945   7.818  13.047 -0.5685  0.2533 -0.1362
 3837UDC     C542201   4.838   7.807  13.147 -0.3250  0.0367 -0.1374
 3837UDC     C642202   4.838   7.683  13.234 -1.2415  0.0280  0.4774
 3837UDC     C742203   4.775   7.709  13.368  0.4208 -0.0855  0.2314
 3837UDC     C842204   4.760   7.593  13.467 -0.2825 -0.1177  0.3640
 3837UDC     C942205   4.702   7.464  13.394 -0.0005  0.5928 -0.4042
 3837UDC    C1042206   4.717   7.324  13.466  0.2686 -0.2702 -1.0698
 3837UDC    C1142207   4.653   7.201  13.398  0.5130 -0.1895 -0.7519
 3838UDC     C142208  12.297  13.747   0.464  1.3837 -0.2480  0.2831
 3838UDC     C242209  12.224  13.628   0.412  1.0287 -0.3378  0.1905
 3838UDC     C342210  12.146  13.543   0.523  0.6750 -0.4318  0.3252
 3838UDC     C442211  12.020  13.623   0.565 -0.2165 -0.3635  0.1503
 3838UDC     C542212  11.933  13.549   0.669 -0.6096 -0.5175  0.2075
 3838UDC     C642213  11.993  13.567   0.808  0.5258 -0.7149 -0.6689
 3838UDC     C742214  11.921  13.477   0.911  0.7180 -0.0997 -0.7037
 3838UDC     C842215  11.982  13.478   1.056 -0.7978 -0.6264  0.4959
 3838UDC     C942216  11.889  13.441   1.176  1.0314 -0.1891 -0.0119
 3838UDC    C1042217  11.836  13.297   1.187  0.3530  0.2733  1.0811
 3838UDC    C1142218  11.770  13.277   1.325  0.1247 -0.1981  0.1311
 3839UDC     C142219  11.339   0.702  13.591 -0.2432  0.3022  0.3165
 3839UDC     C242220  11.441   0.812  13.573  0.5771  0.1625 -0.7730
 3839UDC     C342221  11.463   0.841  13.431 -0.1449  0.5572  0.3525
 3839UDC     C442222  11.540   0.970  13.382  1.1611 -0.4980 -0.3203
 3839UDC     C542223  11.645   0.949  13.273 -0.6630 -0.5756  1.2942
 3839UDC     C642224  11.671   1.070  13.183 -0.1519  0.5041  1.6574
 3839UDC     C742225  11.817   1.060  13.129  0.9044  0.5579 -0.0581
 3839UDC     C842226  11.872   1.170  13.032  0.2768 -0.0046 -1.4855
 3839UDC     C942227  11.912   1.298  13.119 -0.5482 -0.7254  0.4833
 3839UDC    C1042228  12.005   1.380  13.028 -0.1991  0.0452 -0.1922
 3839UDC    C1142229  11.941   1.426  12.895 -0.2306 -0.1242 -1.0748
 3840UDC     C142230  17.270   4.114  15.187 -0.0569  0.2318  0.8634
 3840UDC     C242231  17.119   4.137  15.204  0.1438  0.6668 -1.1722
 3840UDC     C342232  17.049   4.006  15.251 -0.0131 -0.3372 -0.8315
 3840UDC     C442233  17.057   3.873  15.180 -0.4899  0.3768  1.0875
 3840UDC     C542234  17.059   3.755  15.280 -0.3501 -0.0491  0.4976
 3840UDC     C642235  17.011   3.634  15.204  0.3607 -0.1493  0.4437
 3840UDC     C742236  17.110   3.579  15.104  0.3634 -0.1399 -0.0605
 3840UDC     C842237  17.053   3.485  14.995  0.2381 -0.8379  0.1731
 3840UDC     C942238  17.005   3.579  14.880 -0.6905 -0.7830 -1.3468
 3840UDC    C1042239  16.944   3.510  14.756 -0.5706  0.2397 -1.3410
 3840UDC    C1142240  16.915   3.595  14.634  0.0706  1.0421 -0.9518
 3841UDC     C142241   2.751   1.432   7.828 -0.8391  0.2503  0.5674
 3841UDC     C242242   2.839   1.306   7.843  0.3692  0.4952 -0.2039
 3841UDC     C342243   2.858   1.272   7.997 -0.2829  0.9036  0.4167
 3841UDC     C442244   2.943   1.147   8.013 -1.3034 -0.1498  0.1398
 3841UDC     C542245   2.910   1.049   7.898 -0.3360  0.0919  0.2513
 3841UDC     C642246   2.922   0.904   7.954 -0.4562  0.5871 -0.5744
 3841UDC     C742247   2.950   0.796   7.846 -0.9336  0.2896 -0.2612
 3841UDC     C842248   2.939   0.650   7.884  0.4021  0.4562 -0.2658
 3841UDC     C942249   2.861   0.566   7.783 -0.1584  0.0248  0.8394
 3841UDC    C1042250   2.712   0.603   7.807 -0.1080  0.5482 -0.9354
 3841UDC    C1142251   2.627   0.583   7.681  0.5416  0.7454  0.6270
 3842UDC     C142252  12.964  12.586  15.539 -1.1768  0.7618  0.1061
 3842UDC     C242253  12.931  12.474  15.440  0.2786  1.5599  0.3605
 3842UDC     C342254  12.978  12.332  15.495  0.3249 -0.0063  0.1682
 3842UDC     C442255  12.913  12.210  15.420  0.0950  0.3820 -0.3157
 3842UDC     C542256  12.894  12.094  15.516 -0.9047  1.3797 -0.3625
 3842UDC     C642257  12.830  12.147  15.647 -0.0936 -0.4149  0.3701
 3842UDC     C742258  12.791  12.022  15.733 -0.5074 -1.6701 -0.2652
 3842UDC     C842259  12.724  12.063  15.866  0.3921 -1.1569  0.7388
 3842UDC     C942260  12.655  11.952  15.940 -0.7108 -0.7914 -0.2552
 3842UDC    C1042261  12.524  11.978  16.016 -0.6950  0.0275 -0.9345
 3842UDC    C1142262  12.448  11.873  16.105 -0.9016 -0.7894  0.5498
 3843UDC     C142263  19.054   4.491   3.403 -0.3424 -0.0457  0.3558
 3843UDC     C242264  19.064   4.599   3.290  0.5748  0.1566 -0.3481
 3843UDC     C342265  18.929   4.635   3.225 -0.1171 -0.0557  1.3275
 3843UDC     C442266  18.897   4.504   3.152  0.2761  0.1106  0.5344
 3843UDC     C542267  18.768   4.497   3.069  0.6939 -0.3906  0.4038
 3843UDC     C642268  18.643   4.541   3.138  1.0257 -0.7070 -0.3493
 3843UDC     C742269  18.528   4.445   3.123  0.0149  0.6398  0.1676
 3843UDC     C842270  18.501   4.332   3.230 -0.0678  0.9539  1.4572
 3843UDC     C942271  18.614   4.230   3.260  0.7429  0.7543  0.3722
 3843UDC    C1042272  18.661   4.163   3.126  0.1265  0.3520  0.2622
 3843UDC    C1142273  18.812   4.118   3.129  0.0613 -0.4698  0.0847
 3844UDC     C142274  17.555   8.300  19.319 -0.3441  0.2377  0.0064
 3844UDC     C242275  17.538   8.262  19.161 -0.7471 -0.8566 -0.1657
 3844UDC     C342276  17.390   8.291  19.136  0.1324 -0.1607 -0.1142
 3844UDC     C442277  17.345   8.251  19.001  0.5242  0.1585  0.6234
 3844UDC     C542278  17.435   8.317  18.886  0.8627 -0.1668  0.0596
 3844UDC     C642279  17.418   8.232  18.751  0.2515 -0.7740 -0.8257
 3844UDC     C742280  17.432   8.077  18.760  1.3692  0.7904  2.2459
 3844UDC     C842281  17.391   7.993  18.633 -0.2416 -0.3807 -0.7335
 3844UDC     C942282  17.246   8.010  18.603  0.8938 -0.9002 -0.6218
 3844UDC    C1042283  17.177   7.949  18.483 -0.7969 -0.2880 -0.1346
 3844UDC    C1142284  17.020   7.942  18.513 -0.4487  1.0946  0.4417
 3845UDC     C142285  12.025  19.439   3.186  1.0945  0.0237 -0.2205
 3845UDC     C242286  12.000  19.583   3.130 -1.2037  0.2227 -0.3123
 3845UDC     C342287  11.898  19.593   3.015  0.0328  1.0011  0.5686
 3845UDC     C442288  11.977  19.640   2.890  0.5013  0.4018  0.2644
 3845UDC     C542289  12.125  19.583   2.855  0.3921  0.3874 -0.4405
 3845UDC     C642290  12.138  19.581   2.700 -0.9681 -0.2536 -0.7051
 3845UDC     C742291  12.217  19.706   2.670  0.2194 -0.2384  1.1399
 3845UDC     C842292  12.205  19.752   2.524 -0.7476  0.0085 -0.5949
 3845UDC     C942293  12.308  19.863   2.487  0.4370  0.2311 -0.7592
 3845UDC    C1042294  12.397  19.831   2.365 -1.1198  0.1804 -0.7898
 3845UDC    C1142295  12.309  19.818   2.234  0.0715  0.4983 -0.5300
 3846UDC     C142296  13.903   2.874  13.780  0.2402 -0.0731  0.6755
 3846UDC     C242297  13.918   2.924  13.922 -0.2212  0.0859 -0.1333
 3846UDC     C342298  13.785   2.916  14.000 -0.0432  0.7901 -0.0676
 3846UDC     C442299  13.798   2.987  14.132  0.3166 -0.2672 -0.4989
 3846UDC     C542300  13.667   2.969  14.210 -0.2192  0.4139 -0.1542
 3846UDC     C642301  13.671   3.013  14.356  0.3083  0.7854  0.4382
 3846UDC     C742302  13.552   2.945  14.438  1.1566 -0.1789 -1.5785
 3846UDC     C842303  13.615   2.869  14.561 -0.1582 -0.7530  0.3301
 3846UDC     C942304  13.507   2.826  14.662  0.3233 -0.5351  0.2840
 3846UDC    C1042305  13.471   2.923  14.772  0.0873  0.4529  0.5925
 3846UDC    C1142306  13.597   2.994  14.817 -0.3287 -0.4694  0.9689
 3847UDC     C142307  17.098   0.738  14.172  0.3800  0.6144 -0.2144
 3847UDC     C242308  17.076   0.873  14.251 -0.3928 -1.2252 -0.0387
 3847UDC     C342309  16.928   0.883  14.297 -0.9354  0.1320 -0.0156
 3847UDC     C442310  16.881   1.003  14.371 -0.2880 -0.1435  0.0056
 3847UDC     C542311  16.727   1.028  14.372  0.4119 -0.7453  0.2863
 3847UDC     C642312  16.625   0.985  14.257 -0.0372  0.8726 -1.1479
 3847UDC     C742313  16.528   1.089  14.214  0.4755  0.3845 -0.0832
 3847UDC     C842314  16.399   1.031  14.144 -0.8698 -0.7150 -1.0308
 3847UDC     C942315  16.306   1.148  14.096  1.1102  0.1083 -0.3766
 3847UDC    C1042316  16.190   1.082  14.019 -0.1730  0.7595 -0.5470
 3847UDC    C1142317  16.126   0.958  14.085  0.4471 -0.8889  0.4704
 3848UDC     C142318  19.110   4.686   8.008  0.0085  0.6673 -0.2246
 3848UDC     C242319  19.131   4.780   8.121 -0.1628 -0.3571  0.0215
 3848UDC     C342320  19.028   4.892   8.098  0.6336 -1.8502  0.4594
 3848UDC     C442321  19.034   5.027   8.173 -0.3133  0.7357 -0.6290
 3848UDC     C542322  18.925   5.125   8.146  0.0337 -0.5763 -0.6642
 3848UDC     C642323  18.927   5.277   8.209 -1.0228 -0.3461 -0.9616
 3848UDC     C742324  19.022   5.312   8.328 -0.0639  1.6172  1.0122
 3848UDC     C842325  18.967   5.440   8.392 -1.2687 -0.8182  0.3004
 3848UDC     C942326  18.931   5.441   8.538  0.5340 -0.6927 -0.1040
 3848UDC    C1042327  18.834   5.342   8.612 -0.1128 -0.2738  0.7278
 3848UDC    C1142328  18.852   5.345   8.769  0.1595  0.2545 -0.5536
 3849UDC     C142329   4.158  13.918  16.146  0.8323  1.3447  0.0988
 3849UDC     C242330   4.056  13.962  16.033 -1.0765  0.9345 -0.9546
 3849UDC     C342331   4.124  14.035  15.916 -0.2976 -0.4939  0.0894
 3849UDC     C442332   4.038  14.091  15.806  0.6009 -0.0105  0.6843
 3849UDC     C542333   4.100  14.200  15.707 -0.4769  1.1933 -0.9338
 3849UDC     C642334   4.120  14.336  15.760  0.6439  0.3010 -0.2940
 3849UDC     C742335   4.141  14.451  15.655  0.4157 -0.9634 -0.0219
 3849UDC     C842336   4.051  14.461  15.524 -0.3546  0.9499  0.9912
 3849UDC     C942337   4.130  14.503  15.392 -0.5695  0.4000 -0.5433
 3849UDC    C1042338   4.060  14.430  15.277  1.1334  0.5194  0.3326
 3849UDC    C1142339   4.158  14.439  15.160  0.8706 -0.5310  0.7150
 3850UDC     C142340   9.170  17.419   3.730  1.5180  0.1265  0.4650
 3850UDC     C242341   9.258  17.509   3.645 -0.6063  0.0765  0.1746
 3850UDC     C342342   9.397  17.538   3.702  0.8990 -0.8585  0.3140
 3850UDC     C442343   9.505  17.610   3.611  0.4777 -0.8815 -0.0717
 3850UDC     C542344   9.477  17.759   3.598  0.8952  1.3496  0.0392
 3850UDC     C642345   9.479  17.839   3.728  0.5783  0.9066 -0.7437
 3850UDC     C742346   9.612  17.850   3.812  1.2742 -0.5801  0.2698
 3850UDC     C842347   9.652  17.741   3.911 -1.0779 -0.3247 -0.0445
 3850UDC     C942348   9.578  17.755   4.043  0.6239  0.6775 -0.7967
 3850UDC    C1042349   9.419  17.755   4.057  1.0610  0.7556  0.4939
 3850UDC    C1142350   9.395  17.768   4.206 -0.7781  0.0618 -0.5465
 3851UDC     C142351  17.491  16.031  17.084  1.0557 -0.6682  0.2828
 3851UDC     C242352  17.512  15.914  16.989  0.4671 -0.5756  0.4037
 3851UDC     C342353  17.658  15.861  16.961  0.1477 -0.2667 -0.7483
 3851UDC     C442354  17.724  15.805  17.095  0.6378 -0.1623 -0.1548
 3851UDC     C542355  17.850  15.883  17.146 -1.1520  0.3566  0.6843
 3851UDC     C642356  17.911  15.861  17.288  0.2767  0.2166  0.0190
 3851UDC     C742357  17.859  15.955  17.399  0.3465 -0.0107 -1.0611
 3851UDC     C842358  17.729  15.891  17.460 -0.7217  0.8406  0.1963
 3851UDC     C942359  17.663  15.973  17.573 -0.9229  0.6477  0.0610
 3851UDC    C1042360  17.566  15.894  17.656  1.1980 -0.2804  0.9139
 3851UDC    C1142361  17.429  15.866  17.585  0.5085  0.5666  0.8167
 3852UDC     C142362   4.997  12.819  19.668  0.7991  0.9769  0.7495
 3852UDC     C242363   5.116  12.841  19.769  0.2284  0.2808 -0.4659
 3852UDC     C342364   5.123  12.972  19.844 -0.1497 -1.0372  0.3942
 3852UDC     C442365   5.268  12.985  19.891 -0.4487  0.7524  1.2354
 3852UDC     C542366   5.323  13.116  19.938  0.7885  0.4689  0.6224
 3852UDC     C642367   5.472  13.130  19.993 -0.2824  0.6100  0.3167
 3852UDC     C742368   5.512  13.273  20.029  0.1839 -0.2111 -0.6018
 3852UDC     C842369   5.654  13.273  20.092 -0.4288 -0.2493 -0.6052
 3852UDC     C942370   5.748  13.395  20.062  0.7831  0.3930  0.7218
 3852UDC    C1042371   5.902  13.362  20.066  0.6541 -1.0489  0.0671
 3852UDC    C1142372   5.979  13.483  20.012  0.4995 -0.4800 -0.3547
 3853UDC     C142373   1.399   0.817   1.460 -0.4266 -0.5611  0.1564
 3853UDC     C242374   1.339   0.681   1.505 -0.3159  0.3917  0.3445
 3853UDC     C342375   1.258   0.605   1.404  0.0862 -0.3127 -0.9822
 3853UDC     C442376   1.315   0.498   1.306  0.2917 -0.0324  0.1393
 3853UDC     C542377   1.210   0.418   1.237 -0.2149 -0.7396 -0.2414
 3853UDC     C642378   1.259   0.308   1.141 -0.5425 -0.2815 -0.0886
 3853UDC     C742379   1.238   0.324   0.992 -1.0972  0.2274  0.7450
 3853UDC     C842380   1.106   0.398   0.953  0.3021  0.3660 -0.0652
 3853UDC     C942381   1.110   0.462   0.817  0.2017 -1.2537 -0.1386
 3853UDC    C1042382   0.988   0.556   0.799 -0.1137 -0.8492 -0.1011
 3853UDC    C1142383   0.860   0.487   0.826 -0.8644  0.3469 -0.3542
 3854UDC     C142384  16.843   9.542  19.747 -0.5991  0.6249 -0.4383
 3854UDC     C242385  16.821   9.585  19.605 -0.0233  0.7036 -0.7058
 3854UDC     C342386  16.946   9.610  19.521 -0.3109  0.4321  0.3717
 3854UDC     C442387  16.912   9.623  19.370  0.2033  0.2835 -0.0652
 3854UDC     C542388  17.019   9.633  19.266 -1.0005 -0.0449 -0.0429
 3854UDC     C642389  17.056   9.506  19.187 -0.3798  0.9066 -1.2944
 3854UDC     C742390  17.197   9.501  19.126 -0.3447  0.7613 -0.2666
 3854UDC     C842391  17.248   9.365  19.052  0.0152 -0.9240  0.1349
 3854UDC     C942392  17.175   9.301  18.922  0.1641 -0.7003  0.5169
 3854UDC    C1042393  17.037   9.233  18.935 -0.3851 -0.2713 -0.7073
 3854UDC    C1142394  17.054   9.116  19.038  0.4255  1.7176 -0.2365
 3855UDC     C142395  18.022  14.168  17.502 -0.4286  1.2352  0.3095
 3855UDC     C242396  17.941  14.135  17.621  1.2948 -0.7333 -0.9954
 3855UDC     C342397  17.810  14.212  17.619  0.1007 -0.9225  1.1246
 3855UDC     C442398  17.812  14.333  17.707  0.1238 -0.8085  0.8842
 3855UDC     C542399  17.685  14.413  17.734 -0.3720 -0.0061 -0.2597
 3855UDC     C642400  17.681  14.501  17.859 -0.9868 -0.1126 -1.2620
 3855UDC     C742401  17.770  14.629  17.862 -0.3627 -0.4990  0.3052
 3855UDC     C842402  17.753  14.709  17.995 -0.5385  0.6039  0.0933
 3855UDC     C942403  17.810  14.629  18.116 -0.4827 -0.6097 -0.4272
 3855UDC    C1042404  17.790  14.696  18.250 -0.4564 -0.8366 -0.0288
 3855UDC    C1142405  17.816  14.602  18.367  0.1206  0.1213  0.6714
 3856UDC     C142406   7.042  16.019  10.683 -0.4060  0.3490 -0.3810
 3856UDC     C242407   7.098  16.106  10.798 -0.3094 -0.9613  0.3602
 3856UDC     C342408   7.057  16.257  10.795 -0.6713 -0.2920  0.7015
 3856UDC     C442409   7.071  16.345  10.921  1.0551  0.1903 -0.9985
 3856UDC     C542410   6.987  16.467  10.894 -0.1828 -0.4856  0.9061
 3856UDC     C642411   6.913  16.524  11.016 -0.4895  0.6823  0.4256
 3856UDC     C742412   6.873  16.674  11.006  0.0913 -0.4931  0.7928
 3856UDC     C842413   6.789  16.736  11.121  0.3453  0.0319 -0.0665
 3856UDC     C942414   6.747  16.887  11.106 -0.2353  0.0964  0.2501
 3856UDC    C1042415   6.660  16.899  10.982 -0.4073 -0.3227 -0.4929
 3856UDC    C1142416   6.534  16.815  10.982  0.4124  0.2240 -0.1234
 3857UDC     C142417  11.143  11.810   6.684  0.4219  0.8045 -0.4575
 3857UDC     C242418  11.252  11.893   6.746 -0.1118 -0.7798  0.7261
 3857UDC     C342419  11.257  11.900   6.896 -0.0009  0.1787 -0.3062
 3857UDC     C442420  11.383  11.970   6.946  0.3659 -1.0178 -0.9448
 3857UDC     C542421  11.510  11.883   6.947  0.7960  0.6829 -0.0859
 3857UDC     C642422  11.579  11.829   6.817 -0.1614 -0.3485 -0.4219
 3857UDC     C742423  11.627  11.946   6.725  0.2251  0.2180  1.5998
 3857UDC     C842424  11.645  11.896   6.572 -0.2870  0.8399 -0.3783
 3857UDC     C942425  11.758  11.788   6.543 -0.3101 -0.7837 -0.0881
 3857UDC    C1042426  11.763  11.757   6.392  0.2706 -0.2807 -0.6369
 3857UDC    C1142427  11.806  11.619   6.337 -0.9377  0.3622 -0.4882
 3858UDC     C142428   8.179  12.565  10.130  0.2577 -1.2556  0.1659
 3858UDC     C242429   8.103  12.435  10.157 -0.4415  0.4404  0.0862
 3858UDC     C342430   8.204  12.321  10.164  0.8953 -0.1222 -0.6575
 3858UDC     C442431   8.266  12.331  10.307 -0.4134  0.7809  0.5029
 3858UDC     C542432   8.267  12.188  10.358  0.6461 -0.2139 -0.1862
 3858UDC     C642433   8.361  12.091  10.279  0.8091  0.5252  0.3416
 3858UDC     C742434   8.335  11.950  10.330  0.1713 -0.8132 -0.5214
 3858UDC     C842435   8.393  11.929  10.475 -0.3816 -0.0539  0.4187
 3858UDC     C942436   8.397  11.777  10.493 -0.2177 -0.5628 -0.6886
 3858UDC    C1042437   8.265  11.692  10.521 -0.7031 -0.4079  0.6565
 3858UDC    C1142438   8.291  11.541  10.541 -0.3965 -0.0459 -0.1957
 3859UDC     C142439   0.489   4.712  14.003 -0.1198 -0.6801  0.8539
 3859UDC     C242440   0.577   4.755  14.118  0.8131  0.5032  0.1716
 3859UDC     C342441   0.717   4.767  14.054  0.4378  0.1769  0.3728
 3859UDC     C442442   0.832   4.795  14.153 -0.5577 -0.5685 -0.8530
 3859UDC     C542443   0.970   4.754  14.101 -0.9514 -0.0952 -0.8591
 3859UDC     C642444   0.969   4.604  14.073  0.1799 -0.3614  0.2029
 3859UDC     C742445   1.115   4.555  14.080  0.6312  0.1451  0.5378
 3859UDC     C842446   1.147   4.406  14.112  0.4791  0.0791 -0.4269
 3859UDC     C942447   1.238   4.371  14.228  0.5057 -1.4150 -0.4282
 3859UDC    C1042448   1.276   4.220  14.235  0.7498  0.5590  1.2145
 3859UDC    C1142449   1.370   4.182  14.123 -0.0505  0.6014 -0.0067
 3860UDC     C142450   7.168   6.214  18.995  0.0021 -0.6699  0.2082
 3860UDC     C242451   7.175   6.229  19.146  1.0942 -0.1031 -0.5097
 3860UDC     C342452   7.163   6.090  19.218 -0.3417 -0.0288 -0.1478
 3860UDC     C442453   7.146   6.086  19.373  0.3055  0.3856 -0.6200
 3860UDC     C542454   7.164   5.940  19.428 -0.3489 -0.1347  0.5061
 3860UDC     C642455   7.297   5.869  19.421  0.1899 -1.2898  0.0618
 3860UDC     C742456   7.320   5.722  19.464 -0.2355 -0.2342 -0.0617
 3860UDC     C842457   7.437   5.662  19.383  0.5638  0.2075  0.4118
 3860UDC     C942458   7.431   5.509  19.363 -0.0293 -0.2439  1.2477
 3860UDC    C1042459   7.500   5.444  19.240 -0.0182 -0.6676 -0.3431
 3860UDC    C1142460   7.462   5.495  19.096 -0.0727 -0.4361 -0.1884
 3861UDC     C142461   3.070   2.091  12.804  0.3176 -0.1185  0.1384
 3861UDC     C242462   3.198   2.085  12.727  1.3691  1.4102  1.4489
 3861UDC     C342463   3.241   2.229  12.703  0.1545 -0.0992 -0.4407
 3861UDC     C442464   3.131   2.290  12.613 -0.1859 -0.3650 -0.1760
 3861UDC     C542465   3.091   2.217  12.476  0.1336  0.4628 -0.8124
 3861UDC     C642466   3.082   2.317  12.367 -0.2989  0.8373  0.5998
 3861UDC     C742467   3.027   2.272  12.227 -1.2140  0.8927  0.3399
 3861UDC     C842468   3.139   2.188  12.152  0.9343 -0.0431 -0.5810
 3861UDC     C942469   3.276   2.243  12.109  0.4216 -0.6731  0.3073
 3861UDC    C1042470   3.280   2.287  11.967 -0.5406 -0.3226  0.7615
 3861UDC    C1142471   3.236   2.174  11.870  1.1338  1.2254 -0.2493
 3862UDC     C142472   8.219   8.519  11.919 -0.0116  0.7558  0.2674
 3862UDC     C242473   8.067   8.510  11.949  1.1299 -0.5992  0.0298
 3862UDC     C342474   7.991   8.607  11.859 -0.8955  0.6902 -0.3618
 3862UDC     C442475   7.842   8.579  11.846  0.2294  0.5699 -0.6854
 3862UDC     C542476   7.820   8.443  11.782  0.3558  0.0159  0.4010
 3862UDC     C642477   7.772   8.451  11.632  0.5534  0.5656  0.0805
 3862UDC     C742478   7.853   8.363  11.530 -0.4325  0.7025 -1.8262
 3862UDC     C842479   7.828   8.442  11.402  0.5076  0.7555 -0.2614
 3862UDC     C942480   7.939   8.443  11.294 -0.0846  0.2879  0.6113
 3862UDC    C1042481   7.898   8.339  11.195 -0.1852  0.5806  1.3277
 3862UDC    C1142482   7.883   8.184  11.217  1.0457 -0.1484  0.2453
 3863UDC     C142483   5.731   6.992  19.354 -0.3804  0.2352  0.4679
 3863UDC     C242484   5.795   7.127  19.315 -1.0086  0.9680  0.1385
 3863UDC     C342485   5.724   7.186  19.191 -0.4227  0.2193 -0.8437
 3863UDC     C442486   5.694   7.077  19.086 -0.5057  0.5878  0.6991
 3863UDC     C542487   5.806   7.061  18.985  1.7607 -0.7514 -0.4821
 3863UDC     C642488   5.768   6.958  18.871  0.7658 -0.3126 -0.2612
 3863UDC     C742489   5.874   6.971  18.762 -0.6806  0.0809 -0.1787
 3863UDC     C842490   5.826   6.900  18.632  0.6727 -0.6983  0.3672
 3863UDC     C942491   5.954   6.865  18.554  0.1211  0.2135 -0.0487
 3863UDC    C1042492   6.024   6.733  18.584 -0.2792 -0.9990 -0.1096
 3863UDC    C1142493   6.155   6.689  18.523 -0.8554 -0.6285  1.0619
 3864UDC     C142494  14.548  10.271  11.298  0.2320 -0.3928  0.2527
 3864UDC     C242495  14.628  10.195  11.190  0.2983  1.0849  1.0335
 3864UDC     C342496  14.663  10.045  11.213 -0.0759 -0.4259  0.4635
 3864UDC     C442497  14.797  10.006  11.139 -0.3286 -0.3045 -0.0264
 3864UDC     C542498  14.910  10.103  11.164 -1.0604  0.2756 -0.1078
 3864UDC     C642499  14.965  10.082  11.310  0.4181  0.7167  0.9653
 3864UDC     C742500  14.998  10.218  11.376 -0.7722 -0.3125 -0.1448
 3864UDC     C842501  14.988  10.215  11.532 -1.0074 -0.1477 -1.4007
 3864UDC     C942502  15.003  10.356  11.596  0.6201 -0.6762 -0.1392
 3864UDC    C1042503  14.906  10.459  11.540 -0.4957  1.3255 -0.0006
 3864UDC    C1142504  14.941  10.596  11.574  0.2463 -0.5352  0.4287
 3865UDC     C142505   0.860  11.464   7.007  0.9529 -0.1658 -0.7518
 3865UDC     C242506   0.730  11.466   7.094  0.9285 -0.3308 -0.4447
 3865UDC     C342507   0.668  11.337   7.148  0.1375 -0.5200  0.1041
 3865UDC     C442508   0.556  11.285   7.066  0.5744 -0.1465  0.0824
 3865UDC     C542509   0.514  11.148   7.114 -0.0919  0.1603  0.7131
 3865UDC     C642510   0.389  11.072   7.056 -1.1136  0.6553 -0.7161
 3865UDC     C742511   0.261  11.138   7.059  0.2935  0.1218 -0.0326
 3865UDC     C842512   0.153  11.058   6.989  0.4682  0.2891  0.7190
 3865UDC     C942513   0.099  10.942   7.076  0.5578 -0.2944  0.7900
 3865UDC    C1042514   0.044  10.992   7.212  0.3423 -0.2024  0.5517
 3865UDC    C1142515   0.033  10.881   7.313 -0.3393 -0.6525 -0.3557
 3866UDC     C142516   0.338   6.095  14.748 -0.6594  0.3593 -0.5264
 3866UDC     C242517   0.378   6.235  14.698 -1.0786  0.4367 -0.7655
 3866UDC     C342518   0.280   6.327  14.619  0.4404 -0.1426 -0.3052
 3866UDC     C442519   0.125   6.325  14.656  0.7126  0.3548 -0.2544
 3866UDC     C542520   0.064   6.469  14.630  0.5686  0.0685 -0.6454
 3866UDC     C642521  -0.084   6.473  14.688 -1.1993  0.2909 -0.6797
 3866UDC     C742522  -0.100   6.375  14.805  0.0312  0.5899 -0.2661
 3866UDC     C842523  -0.241   6.340  14.853  0.3711 -0.5006  0.8572
 3866UDC     C942524  -0.230   6.239  14.962  0.2510 -0.7753 -0.0615
 3866UDC    C1042525  -0.261   6.095  14.919 -0.6705  0.5160 -0.4777
 3866UDC    C1142526  -0.321   5.999  15.033  0.5030 -0.2649  0.7033
 3867UDC     C142527  17.115  19.400  17.325  0.5081  0.3755 -0.1696
 3867UDC     C242528  17.159  19.273  17.254  0.2023 -0.0329  0.4039
 3867UDC     C342529  17.313  19.274  17.260 -0.0570  0.7503  0.1887
 3867UDC     C442530  17.377  19.204  17.145  0.5094  0.5543  0.2595
 3867UDC     C542531  17.456  19.277  17.042 -1.0159 -0.6034  0.7874
 3867UDC     C642532  17.542  19.360  17.123 -1.3367  0.1675 -0.0694
 3867UDC     C742533  17.654  19.285  17.194  0.0539 -0.3140 -0.0886
 3867UDC     C842534  17.736  19.362  17.287  0.0670 -0.1397 -0.5216
 3867UDC     C942535  17.872  19.404  17.220  0.3028  0.4919 -0.9247
 3867UDC    C1042536  17.981  19.413  17.322  0.0870 -0.3824  0.1861
 3867UDC    C1142537  17.965  19.521  17.430 -0.2047 -0.5960 -0.0713
 3868UDC     C142538   8.444   5.787  11.327 -0.2199  0.6607  0.9045
 3868UDC     C242539   8.339   5.891  11.373 -1.0007  1.4117  0.3078
 3868UDC     C342540   8.193   5.844  11.371  0.1626 -0.6992 -1.0861
 3868UDC     C442541   8.082   5.938  11.433  0.8549  0.7020 -0.8047
 3868UDC     C542542   8.071   5.972  11.584 -0.6402 -0.6762 -1.7698
 3868UDC     C642543   7.932   6.035  11.603  0.6408  0.4911 -0.7314
 3868UDC     C742544   7.900   6.038  11.759 -1.5561  0.3130 -0.6034
 3868UDC     C842545   7.760   6.077  11.797  0.2669  1.1234 -0.1520
 3868UDC     C942546   7.653   6.002  11.728  0.4521 -0.5131  1.0442
 3868UDC    C1042547   7.522   6.089  11.708 -0.4139  1.0183 -0.5773
 3868UDC    C1142548   7.420   6.077  11.822 -0.1319  1.0735 -0.0151
 3869UDC     C142549   8.523  10.653  14.139 -0.0812  0.0084  1.1272
 3869UDC     C242550   8.629  10.679  14.025 -0.0975  0.2231 -0.3976
 3869UDC     C342551   8.599  10.606  13.893  0.4390 -1.3602  0.7663
 3869UDC     C442552   8.479  10.666  13.812 -1.1742  0.4815 -0.0725
 3869UDC     C542553   8.449  10.610  13.669  0.0360  0.0322  1.0366
 3869UDC     C642554   8.311  10.636  13.616  0.1831  1.1806  0.9363
 3869UDC     C742555   8.197  10.536  13.644 -1.4306 -0.9799  1.5584
 3869UDC     C842556   8.168  10.501  13.794  0.8554 -0.3533  0.1919
 3869UDC     C942557   8.027  10.452  13.797  1.2388  0.6524 -0.0186
 3869UDC    C1042558   7.935  10.526  13.892 -0.8335  1.2241  0.1813
 3869UDC    C1142559   7.820  10.610  13.835  0.6775 -0.6961 -0.5878
 3870UDC     C142560   7.673  15.100   5.506  0.3761 -0.2508 -0.5808
 3870UDC     C242561   7.594  15.084   5.373 -0.0680 -0.5271 -0.2449
 3870UDC     C342562   7.642  14.957   5.310  0.2719 -0.4239  0.0814
 3870UDC     C442563   7.638  14.839   5.414  0.2738  0.0855 -0.1673
 3870UDC     C542564   7.645  14.702   5.356 -0.0639 -0.0149  1.1527
 3870UDC     C642565   7.596  14.606   5.460  0.1649  0.3912 -0.5752
 3870UDC     C742566   7.519  14.481   5.421  1.4380  0.3120  0.0755
 3870UDC     C842567   7.395  14.511   5.331 -1.4767  0.2844  0.7059
 3870UDC     C942568   7.285  14.403   5.347  0.3726  0.6926  0.2301
 3870UDC    C1042569   7.247  14.378   5.490  0.3819 -0.8604 -0.0754
 3870UDC    C1142570   7.143  14.474   5.563 -0.5669 -0.3178 -1.0664
 3871UDC     C142571   6.581   0.546  13.830  0.3017  0.0877 -0.2773
 3871UDC     C242572   6.734   0.558  13.816  0.0886  0.3494  0.7203
 3871UDC     C342573   6.830   0.481  13.900  1.1690 -0.2452 -0.7478
 3871UDC     C442574   6.852   0.339  13.846 -0.6122  0.6172  0.2365
 3871UDC     C542575   6.927   0.236  13.921 -0.2925 -0.1111  0.5649
 3871UDC     C642576   6.884   0.105  13.842 -0.4013  0.5712  0.5601
 3871UDC     C742577   6.733   0.067  13.847  0.1282  0.0613 -0.2188
 3871UDC     C842578   6.721  -0.080  13.803 -0.2323  0.4585  1.2761
 3871UDC     C942579   6.749  -0.183  13.913  0.1490 -0.2052  0.0820
 3871UDC    C1042580   6.771  -0.334  13.878 -0.8699  0.7830 -0.3156
 3871UDC    C1142581   6.875  -0.408  13.970 -0.4812  0.2215  0.6864
 3872UDC     C142582  12.964  14.754  11.558 -0.8271 -0.9730 -0.8032
 3872UDC     C242583  12.850  14.659  11.587  1.2191 -0.8101  0.7367
 3872UDC     C342584  12.748  14.662  11.473 -0.9200  0.0493  0.3806
 3872UDC     C442585  12.660  14.784  11.480  0.9618  0.3943  0.7667
 3872UDC     C542586  12.560  14.798  11.365 -0.2707  0.5601  0.6043
 3872UDC     C642587  12.464  14.680  11.371 -0.3729 -0.7097  0.9938
 3872UDC     C742588  12.321  14.735  11.399 -0.4573 -0.1688 -0.2907
 3872UDC     C842589  12.207  14.640  11.420  0.0040 -0.2016 -0.0833
 3872UDC     C942590  12.222  14.567  11.548  0.4673 -0.0683  0.2906
 3872UDC    C1042591  12.092  14.490  11.561 -0.8869  0.7961  0.0814
 3872UDC    C1142592  11.967  14.555  11.614  1.6008  0.6330 -0.4168
 3873UDC     C142593   8.738  16.980   4.603  0.5050 -0.3324 -0.6949
 3873UDC     C242594   8.597  16.931   4.563 -0.1200 -0.7729  0.0957
 3873UDC     C342595   8.479  16.993   4.646 -1.6341 -0.3951  0.0348
 3873UDC     C442596   8.436  17.134   4.603 -0.2849  0.3325 -0.2721
 3873UDC     C542597   8.300  17.158   4.662  0.4350 -0.9709  0.5452
 3873UDC     C642598   8.248  17.298   4.644  0.4319 -0.2891 -1.1853
 3873UDC     C742599   8.168  17.363   4.763  0.5397  0.3592 -0.2674
 3873UDC     C842600   8.016  17.382   4.729 -0.8725 -0.1387 -0.4998
 3873UDC     C942601   7.939  17.422   4.853 -0.6276  0.4764  0.6447
 3873UDC    C1042602   7.801  17.374   4.869  0.5834  0.6452 -0.6336
 3873UDC    C1142603   7.808  17.282   4.989  0.1358  0.0426  0.5921
 3874UDC     C142604  16.358  19.973  10.766  0.6336 -0.0190  0.1739
 3874UDC     C242605  16.477  19.909  10.696 -0.4282  0.1253  0.2349
 3874UDC     C342606  16.473  19.761  10.694 -0.2104  0.5568  1.0881
 3874UDC     C442607  16.344  19.705  10.634  0.0589  1.6962 -0.5365
 3874UDC     C542608  16.327  19.701  10.481 -0.2760 -0.0971  0.3152
 3874UDC     C642609  16.425  19.598  10.418 -0.4969 -0.3036  0.1620
 3874UDC     C742610  16.428  19.621  10.265  0.1461  0.1996 -0.4488
 3874UDC     C842611  16.534  19.518  10.217  0.5330  1.2271  0.5045
 3874UDC     C942612  16.666  19.501  10.303  0.8236 -0.2351 -0.3886
 3874UDC    C1042613  16.782  19.604  10.289 -0.3900  0.6858  1.0134
 3874UDC    C1142614  16.909  19.562  10.362  0.0597 -0.6313 -0.3847
 3875UDC     C142615   7.001  15.929  19.931  0.4183 -0.1008 -0.2995
 3875UDC     C242616   6.948  15.785  19.987  0.0424 -0.6868  0.5588
 3875UDC     C342617   7.034  15.707  20.101 -0.1533 -0.3130  1.0094
 3875UDC     C442618   6.967  15.579  20.148  0.3294  0.3124 -1.2933
 3875UDC     C542619   7.000  15.517  20.288  0.5403  0.1280 -0.8694
 3875UDC     C642620   7.012  15.617  20.403  0.5428  0.4882  1.2442
 3875UDC     C742621   7.027  15.545  20.531 -0.0834  0.3207  0.1795
 3875UDC     C842622   6.972  15.595  20.659 -0.4930  0.7339  0.6326
 3875UDC     C942623   7.016  15.495  20.764 -0.6324  0.7138 -0.5554
 3875UDC    C1042624   7.000  15.346  20.720 -0.6576 -1.3491 -0.4433
 3875UDC    C1142625   7.028  15.267  20.844  0.2612  0.7089  0.3344
 3876UDC     C142626   9.931  15.240  14.195 -0.5205  1.0010  1.2524
 3876UDC     C242627   9.955  15.151  14.313  0.2613 -0.3048  0.9961
 3876UDC     C342628   9.939  15.214  14.452 -0.5048  0.1393 -0.0155
 3876UDC     C442629   9.875  15.136  14.563 -0.2340 -0.5498  0.3918
 3876UDC     C542630   9.906  15.204  14.699 -0.8591  0.4069  0.8256
 3876UDC     C642631   9.810  15.155  14.811  0.9461  0.2520  0.6826
 3876UDC     C742632   9.846  15.212  14.954 -0.3526 -0.7621 -0.0799
 3876UDC     C842633   9.770  15.154  15.071  0.2269 -0.6754  0.1513
 3876UDC     C942634   9.834  15.210  15.200 -0.5122  0.9579  0.5728
 3876UDC    C1042635   9.992  15.212  15.204  0.8662 -0.9384 -0.3642
 3876UDC    C1142636  10.048  15.236  15.345 -0.3288 -0.0924 -1.1483
 3877UDC     C142637   2.357  16.579  11.092 -0.1853  0.2222 -0.8407
 3877UDC     C242638   2.230  16.665  11.080 -0.6291  1.0631 -0.4669
 3877UDC     C342639   2.252  16.798  10.997 -0.1532  1.5090 -0.6117
 3877UDC     C442640   2.290  16.907  11.098  0.0768 -0.1853  0.3301
 3877UDC     C542641   2.187  17.023  11.085  0.4272 -0.2843  0.5225
 3877UDC     C642642   2.178  17.094  10.944 -0.1364  0.5244 -0.7625
 3877UDC     C742643   2.102  17.234  10.939  0.3212  0.3196 -0.0162
 3877UDC     C842644   1.974  17.237  11.014  0.1723  0.3352 -0.2272
 3877UDC     C942645   1.904  17.381  11.023  0.5390 -0.2797  0.8015
 3877UDC    C1042646   1.903  17.436  10.882  0.5595  1.5949  0.1793
 3877UDC    C1142647   1.955  17.580  10.882  0.2508 -0.2225 -0.3747
 3878UDC     C142648  14.593  14.046   0.300  0.1769  0.4944  0.1949
 3878UDC     C242649  14.725  14.084   0.234 -0.7696  0.6654 -0.9374
 3878UDC     C342650  14.825  14.154   0.335  0.9151 -0.0476 -0.6623
 3878UDC     C442651  14.938  14.051   0.367  0.1590 -0.3841 -0.0132
 3878UDC     C542652  15.044  14.102   0.465  0.3515 -0.0899 -0.4910
 3878UDC     C642653  15.159  14.008   0.506  0.7294 -0.5594 -0.2019
 3878UDC     C742654  15.112  13.856   0.513 -0.7291 -1.2395  0.4394
 3878UDC     C842655  15.227  13.761   0.510 -0.5435  1.0522  0.4918
 3878UDC     C942656  15.306  13.732   0.639  0.7319 -0.0065 -0.2001
 3878UDC    C1042657  15.233  13.768   0.770  0.6282  0.3870 -0.5984
 3878UDC    C1142658  15.324  13.741   0.899  0.6772  0.8239  0.3084
 3879UDC     C142659  14.928   1.146   6.889 -0.5006  0.0778 -0.6885
 3879UDC     C242660  14.859   1.267   6.814 -0.0344 -0.2283  0.0825
 3879UDC     C342661  14.957   1.334   6.714  0.5521 -0.1154  0.9454
 3879UDC     C442662  14.911   1.487   6.714 -0.3391  1.1831 -0.0330
 3879UDC     C542663  14.767   1.492   6.673 -0.0144 -0.1311  1.4826
 3879UDC     C642664  14.724   1.588   6.561 -0.7155  0.0132  0.0491
 3879UDC     C742665  14.572   1.594   6.525 -0.4302  0.1697  0.9059
 3879UDC     C842666  14.550   1.671   6.396 -0.1586 -0.9699  0.3641
 3879UDC     C942667  14.399   1.695   6.382  0.3533  0.4295  0.2793
 3879UDC    C1042668  14.326   1.759   6.509 -0.2254  0.2542 -0.1863
 3879UDC    C1142669  14.189   1.817   6.462  0.2477 -0.0884 -0.3236
 3880UDC     C142670  13.662  13.008   6.258 -1.2282  0.0400 -0.5574
 3880UDC     C242671  13.751  12.938   6.368 -0.2934 -0.2958  0.0230
 3880UDC     C342672  13.697  12.932   6.513 -1.1324  0.1203  0.0320
 3880UDC     C442673  13.616  12.815   6.545 -0.1241  0.6287  0.3746
 3880UDC     C542674  13.484  12.789   6.477  0.1893 -0.3655 -1.4355
 3880UDC     C642675  13.372  12.890   6.527 -0.1319  0.0411 -0.1360
 3880UDC     C742676  13.269  12.931   6.418  0.7387 -0.0711 -0.4110
 3880UDC     C842677  13.314  13.012   6.295  0.7046 -1.4869 -0.8124
 3880UDC     C942678  13.204  13.041   6.188 -0.8205 -0.2077 -0.1772
 3880UDC    C1042679  13.241  13.146   6.082  0.3211 -0.6464 -0.3612
 3880UDC    C1142680  13.159  13.279   6.084 -0.2179  0.1817 -0.7239
 3881UDC     C142681  17.191  12.135  17.569  0.1248  0.7493  0.0842
 3881UDC     C242682  17.188  12.291  17.558 -0.5097 -0.2707  0.4135
 3881UDC     C342683  17.063  12.361  17.502  1.0164 -0.5655 -0.3341
 3881UDC     C442684  17.081  12.501  17.441  0.2925 -0.3276  0.2149
 3881UDC     C542685  17.188  12.486  17.333  0.7405 -0.4926  1.3452
 3881UDC     C642686  17.117  12.442  17.205 -0.4103  0.4779 -0.8538
 3881UDC     C742687  17.229  12.438  17.103 -0.0620  0.0698  1.2708
 3881UDC     C842688  17.193  12.406  16.953  0.5607 -0.1354  0.4034
 3881UDC     C942689  17.307  12.355  16.861 -0.1699  0.0992  0.2338
 3881UDC    C1042690  17.265  12.318  16.713  0.5270  0.4446 -0.8498
 3881UDC    C1142691  17.392  12.287  16.626  0.5776 -0.1855 -0.9947
 3882UDC     C142692  12.494   3.086   3.217 -1.1442 -0.0525 -0.5890
 3882UDC     C242693  12.415   3.222   3.201 -0.3971 -0.7800  0.4688
 3882UDC     C342694  12.486   3.336   3.284 -0.3323 -0.0600  0.0450
 3882UDC     C442695  12.634   3.349   3.232 -0.6910  0.7623  0.8957
 3882UDC     C542696  12.680   3.494   3.236  0.3743  1.1847  0.1959
 3882UDC     C642697  12.806   3.513   3.316 -0.0303  0.4377  0.4368
 3882UDC     C742698  12.856   3.652   3.336 -0.0764 -0.2833  0.0688
 3882UDC     C842699  12.928   3.726   3.216  0.9246  0.2690  1.3910
 3882UDC     C942700  13.032   3.636   3.141  0.5115  0.5143  0.0471
 3882UDC    C1042701  13.181   3.656   3.194  1.1075  0.0321  0.5376
 3882UDC    C1142702  13.220   3.808   3.201 -0.7167 -0.1547  0.2493
 3883UDC     C142703  15.396  18.999  13.984 -0.3291  0.2653 -0.9057
 3883UDC     C242704  15.252  19.028  14.019  0.2168 -1.2643 -0.4796
 3883UDC     C342705  15.155  18.924  13.970 -0.1484 -0.0506  0.1968
 3883UDC     C442706  15.003  18.957  13.967 -0.9153  0.4249 -0.7042
 3883UDC     C542707  14.909  18.839  13.996  0.5933  0.6759 -0.2292
 3883UDC     C642708  14.790  18.845  13.898 -0.0787 -0.1535  0.2680
 3883UDC     C742709  14.747  18.699  13.863  0.4474 -0.0428 -0.4248
 3883UDC     C842710  14.655  18.686  13.738  0.3699 -1.1020 -0.1958
 3883UDC     C942711  14.671  18.564  13.650  0.2882  0.5080  1.2721
 3883UDC    C1042712  14.550  18.540  13.562  0.6339 -0.1562 -0.0898
 3883UDC    C1142713  14.597  18.430  13.470  0.7032 -0.0885  0.4976
 3884UDC     C142714  14.868  19.568  10.557 -0.3899  0.6289 -0.4667
 3884UDC     C242715  14.739  19.652  10.559 -1.0115 -1.0728 -0.3307
 3884UDC     C342716  14.710  19.733  10.431  0.1334  0.7025 -0.8186
 3884UDC     C442717  14.563  19.763  10.415 -0.7098 -0.0388  0.2948
 3884UDC     C542718  14.484  19.637  10.393  0.9854 -0.2533 -0.3801
 3884UDC     C642719  14.368  19.639  10.289  0.2860  0.5754 -0.2627
 3884UDC     C742720  14.348  19.497  10.222  0.2775 -0.0074  0.2174
 3884UDC     C842721  14.280  19.484  10.082  0.3896  0.8326 -0.8914
 3884UDC     C942722  14.353  19.422   9.971 -0.4472 -0.4236 -0.2319
 3884UDC    C1042723  14.387  19.269   9.986  0.0133 -1.2678 -0.2753
 3884UDC    C1142724  14.460  19.217   9.862  0.3125 -0.2961 -0.4258
 3885UDC     C142725  19.230   9.006  19.379 -0.1686 -0.9641 -0.8897
 3885UDC     C242726  19.121   8.925  19.314  0.9024  1.0742 -0.8569
 3885UDC     C342727  19.045   8.832  19.415 -0.4918  0.0339  0.8082
 3885UDC     C442728  19.147   8.751  19.504  0.1762  1.1217  0.1142
 3885UDC     C542729  19.058   8.680  19.614 -0.3114 -0.7419  0.4954
 3885UDC     C642730  19.146   8.637  19.738 -0.5781  0.0996  0.4302
 3885UDC     C742731  19.073   8.538  19.821 -0.2654 -0.9341 -0.5058
 3885UDC     C842732  19.004   8.415  19.767 -0.4052  1.2729 -0.0878
 3885UDC     C942733  18.908   8.326  19.852  0.3682 -0.3896 -0.4232
 3885UDC    C1042734  18.818   8.239  19.751 -1.0322 -0.8646 -0.4610
 3885UDC    C1142735  18.903   8.154  19.647 -0.2517  0.2122 -0.4307
 3886UDC     C142736  15.327  12.658  15.613  0.5668  0.7017 -0.3273
 3886UDC     C242737  15.462  12.633  15.689 -0.4699 -0.8339  0.5158
 3886UDC     C342738  15.580  12.573  15.608  0.4490 -0.2646  0.5178
 3886UDC     C442739  15.533  12.466  15.508 -1.1608 -0.6344 -0.5297
 3886UDC     C542740  15.639  12.467  15.400  0.5787  1.1415 -0.8696
 3886UDC     C642741  15.609  12.407  15.267 -0.6588  0.8465  0.1197
 3886UDC     C742742  15.740  12.398  15.189 -1.0751  0.2912  0.1691
 3886UDC     C842743  15.769  12.321  15.063 -0.2524  0.3917  0.4826
 3886UDC     C942744  15.913  12.310  15.013  1.3478  0.5644  0.8434
 3886UDC    C1042745  15.928  12.227  14.880 -1.1348  0.4307 -0.7691
 3886UDC    C1142746  16.073  12.202  14.833  0.5417 -1.0037  0.0177
 3887UDC     C142747   3.019  15.783   7.319 -0.2714  0.4064 -0.3124
 3887UDC     C242748   2.894  15.788   7.406 -1.1024  0.1107  0.0382
 3887UDC     C342749   2.749  15.758   7.367  0.1879 -0.0464 -0.7638
 3887UDC     C442750   2.650  15.834   7.465 -0.0778 -0.9251 -0.6429
 3887UDC     C542751   2.529  15.744   7.501 -0.3236 -0.0750 -0.1927
 3887UDC     C642752   2.573  15.639   7.597  0.6719 -0.5551 -0.1337
 3887UDC     C742753   2.462  15.540   7.606  1.0047  0.3669  0.0467
 3887UDC     C842754   2.416  15.487   7.743  0.8094  0.4413 -0.1220
 3887UDC     C942755   2.307  15.370   7.743 -0.1756  0.5778 -0.6044
 3887UDC    C1042756   2.254  15.331   7.887  0.5384  0.2860  0.4034
 3887UDC    C1142757   2.366  15.257   7.975  0.0244 -0.5571  0.1697
 3888UDC     C142758   3.797   9.126   4.763 -0.8099  0.7849 -0.2485
 3888UDC     C242759   3.816   9.026   4.885 -0.4553  0.9602  0.1444
 3888UDC     C342760   3.954   9.053   4.945  0.1835  0.9036  0.5111
 3888UDC     C442761   4.016   8.941   5.030 -0.2269  0.2894  0.0835
 3888UDC     C542762   4.169   8.967   5.049  0.7850 -0.5121  0.5918
 3888UDC     C642763   4.187   9.073   5.164 -0.1935  0.1478  0.4204
 3888UDC     C742764   4.328   9.081   5.221  0.2272 -0.2251 -0.3701
 3888UDC     C842765   4.428   9.147   5.120  0.4623  1.4243 -1.1329
 3888UDC     C942766   4.403   9.291   5.082  0.8874  0.9370 -1.4081
 3888UDC    C1042767   4.526   9.347   5.008 -0.3566  0.3161 -0.3172
 3888UDC    C1142768   4.667   9.337   5.081  1.2216  0.5850 -0.0591
 3889UDC     C142769   5.989   3.919   9.085 -0.5097 -0.0114 -0.6150
 3889UDC     C242770   6.019   3.899   8.938  0.5748  0.0642  0.6654
 3889UDC     C342771   6.145   3.812   8.928  0.3152  0.7112  0.3484
 3889UDC     C442772   6.166   3.762   8.790 -0.4703 -1.1199  0.8478
 3889UDC     C542773   6.063   3.650   8.750  0.1946  0.1275  0.5900
 3889UDC     C642774   6.090   3.512   8.821  0.4254 -0.4161  0.2684
 3889UDC     C742775   5.993   3.406   8.763 -0.8550  0.5690 -0.0888
 3889UDC     C842776   5.850   3.412   8.811  0.4965  0.4890 -1.0191
 3889UDC     C942777   5.816   3.358   8.958 -1.0244 -1.3596  0.4066
 3889UDC    C1042778   5.667   3.338   8.950 -0.7679 -0.4854 -0.1886
 3889UDC    C1142779   5.597   3.318   9.083  0.4126  0.9756 -1.6249
 3890UDC     C142780  12.747  12.182  13.586 -0.1586  0.2274  0.6970
 3890UDC     C242781  12.878  12.159  13.664  0.0478 -0.1371 -0.0819
 3890UDC     C342782  12.984  12.265  13.630  0.7919  0.4603  1.4741
 3890UDC     C442783  13.132  12.249  13.665 -0.8301  0.3968  0.5417
 3890UDC     C542784  13.230  12.364  13.665  0.1763  0.3570  0.1345
 3890UDC     C642785  13.208  12.451  13.787 -0.2009 -0.0608  0.1228
 3890UDC     C742786  13.220  12.377  13.924  0.3710 -0.7598  0.1274
 3890UDC     C842787  13.219  12.472  14.049 -0.2892 -0.3780  1.0629
 3890UDC     C942788  13.249  12.391  14.172 -0.0770  0.0640  0.3364
 3890UDC    C1042789  13.364  12.451  14.253  1.0236 -0.8874 -0.0324
 3890UDC    C1142790  13.458  12.538  14.168 -0.0369  0.2434  0.3184
 3891UDC     C142791   9.424   9.528  10.262  0.1129 -0.0847 -0.0897
 3891UDC     C242792   9.412   9.420  10.370  1.0055 -0.4938 -0.7305
 3891UDC     C342793   9.429   9.484  10.508 -0.0376 -0.2474  0.0029
 3891UDC     C442794   9.567   9.533  10.552  0.3425 -0.8949 -1.1371
 3891UDC     C542795   9.577   9.566  10.707 -0.2952  0.6458  0.2049
 3891UDC     C642796   9.495   9.691  10.735 -0.1158 -0.0302 -0.3611
 3891UDC     C742797   9.574   9.763  10.849 -0.3140  0.4175  0.8199
 3891UDC     C842798   9.694   9.852  10.807  0.8545  1.2406  0.8460
 3891UDC     C942799   9.765   9.956  10.897 -0.6883  1.0671  0.0149
 3891UDC    C1042800   9.682  10.002  11.016  0.3907  0.0767  0.1006
 3891UDC    C1142801   9.750  10.099  11.119  0.0567 -0.6193 -0.0411
 3892UDC     C142802  19.196   9.757   8.953  0.0676 -0.3144  0.8056
 3892UDC     C242803  19.069   9.693   9.011  1.1807  0.7140 -0.3060
 3892UDC     C342804  19.080   9.540   9.018  0.3057  0.4326  0.4940
 3892UDC     C442805  19.087   9.462   8.887  0.1845  0.0872  1.2422
 3892UDC     C542806  18.983   9.347   8.876 -0.3729  0.2546 -0.2140
 3892UDC     C642807  18.847   9.369   8.807 -0.7548 -0.3809  0.1698
 3892UDC     C742808  18.731   9.288   8.867 -0.2599 -0.2892  0.0240
 3892UDC     C842809  18.607   9.337   8.788  0.3823 -0.7350 -0.4927
 3892UDC     C942810  18.629   9.413   8.663 -0.5985  0.4504 -0.2932
 3892UDC    C1042811  18.494   9.442   8.591  0.5354  0.9933 -0.3920
 3892UDC    C1142812  18.419   9.311   8.547 -0.6201  0.1777  0.1169
 3893UDC     C142813  17.819  12.190   0.756  0.8893  0.0424  0.7163
 3893UDC     C242814  17.721  12.074   0.804  0.0733  1.1044 -0.1881
 3893UDC     C342815  17.570  12.101   0.809 -0.3328  0.5991 -0.2701
 3893UDC     C442816  17.481  11.985   0.860 -0.9461  0.4494  0.1190
 3893UDC     C542817  17.510  11.923   1.002  0.1831  0.6122  0.6481
 3893UDC     C642818  17.404  11.806   1.038 -0.5676 -0.5811 -0.8309
 3893UDC     C742819  17.259  11.861   1.030 -0.2026 -0.0363 -0.2379
 3893UDC     C842820  17.151  11.754   1.029 -0.6288  0.0447 -0.1981
 3893UDC     C942821  17.099  11.716   0.885 -0.1907  0.9684 -0.0969
 3893UDC    C1042822  16.995  11.607   0.891  0.4981 -1.2142 -0.0231
 3893UDC    C1142823  16.867  11.655   0.962  0.3626  0.1465 -0.1146
 3894UDC     C142824   6.900  12.422   0.406  0.4823  0.9961  1.0046
 3894UDC     C242825   6.851  12.480   0.275  0.8647 -0.0384 -0.1625
 3894UDC     C342826   6.881  12.632   0.280  0.8961 -0.3608 -1.1084
 3894UDC     C442827   6.937  12.711   0.163 -0.0435 -0.2702 -0.1036
 3894UDC     C542828   6.964  12.857   0.210 -0.7703  0.2688 -1.5601
 3894UDC     C642829   6.971  12.959   0.098  0.3492 -0.4507  0.3480
 3894UDC     C742830   7.026  13.101   0.140 -0.1907  0.1775  0.0454
 3894UDC     C842831   7.097  13.174   0.025  0.5755  1.2576 -0.5801
 3894UDC     C942832   7.169  13.308   0.051 -0.6278  0.3092 -0.3189
 3894UDC    C1042833   7.323  13.305   0.068  0.2086 -0.1335 -0.7516
 3894UDC    C1142834   7.390  13.440   0.095  0.0695  0.0822  0.1226
 3895UDC     C142835  12.595   6.306   1.802 -0.2661 -0.0498 -0.6408
 3895UDC     C242836  12.505   6.225   1.900 -0.6586  0.1315 -0.2123
 3895UDC     C342837  12.402   6.127   1.852  0.6197  0.2014  0.6149
 3895UDC     C442838  12.280   6.097   1.936  1.0037 -0.2040  0.3599
 3895UDC     C542839  12.301   6.027   2.074  0.1096 -0.2792  0.8699
 3895UDC     C642840  12.173   6.017   2.165  0.3374 -0.2679 -0.5497
 3895UDC     C742841  12.107   6.154   2.213 -0.2817 -0.2861  0.2585
 3895UDC     C842842  12.080   6.189   2.363 -0.5354  0.2157 -0.0795
 3895UDC     C942843  11.953   6.266   2.378  0.3255  0.7486  0.1413
 3895UDC    C1042844  11.825   6.193   2.323 -0.3301 -1.4732 -0.4531
 3895UDC    C1142845  11.789   6.070   2.403 -0.6353  0.3044  0.1437
 3896UDC     C142846  13.748  13.774  19.797  0.0796 -0.3392 -0.6441
 3896UDC     C242847  13.602  13.750  19.769  0.2303  0.1786  1.1469
 3896UDC     C342848  13.536  13.652  19.862 -0.1624 -0.6378  0.5542
 3896UDC     C442849  13.386  13.637  19.842 -0.8671 -0.1353 -0.0223
 3896UDC     C542850  13.368  13.653  19.694 -0.1167  0.3947 -0.2672
 3896UDC     C642851  13.261  13.568  19.620  0.1384  0.4355 -0.8090
 3896UDC     C742852  13.246  13.582  19.472  0.6788  0.7236  0.0385
 3896UDC     C842853  13.132  13.670  19.420 -0.2866  0.0014 -0.6120
 3896UDC     C942854  13.159  13.814  19.384  0.5418 -0.2407 -0.9662
 3896UDC    C1042855  13.266  13.856  19.290 -0.5045 -0.4377 -0.8921
 3896UDC    C1142856  13.327  13.992  19.302 -0.7994 -0.1560  0.8058
 3897UDC     C142857   2.629   7.230   4.604  0.6893  1.1990  0.4198
 3897UDC     C242858   2.566   7.117   4.685  0.4712  0.0036  0.8719
 3897UDC     C342859   2.553   7.146   4.836 -0.0541  0.5350  0.4129
 3897UDC     C442860   2.685   7.164   4.901 -0.2623 -0.3174  1.0391
 3897UDC     C542861   2.753   7.028   4.906  0.5721  0.5959  0.1086
 3897UDC     C642862   2.888   7.021   4.976  1.0157  0.1674 -0.4925
 3897UDC     C742863   2.979   7.121   4.907 -0.2747  0.5518 -0.1279
 3897UDC     C842864   3.119   7.067   4.914 -1.2287  0.3467 -0.9295
 3897UDC     C942865   3.234   7.145   4.855 -0.3338 -0.5647 -1.2126
 3897UDC    C1042866   3.219   7.160   4.704 -0.8528 -0.1386 -0.4725
 3897UDC    C1142867   3.300   7.271   4.650  0.3424 -0.1146 -0.0699
 3898UDC     C142868  19.994   0.422   7.945 -0.3757 -0.2829 -0.3081
 3898UDC     C242869  19.955   0.366   7.805  0.1065 -1.1644  0.1992
 3898UDC     C342870  19.887   0.479   7.723  0.2559 -0.2286 -0.1163
 3898UDC     C442871  19.870   0.477   7.568  0.1268 -0.8541 -0.0747
 3898UDC     C542872  20.007   0.473   7.508  0.0932 -0.0106 -0.0921
 3898UDC     C642873  20.006   0.502   7.361 -0.0268 -0.0838  0.0308
 3898UDC     C742874  19.931   0.400   7.267 -0.2298 -0.2431  0.1190
 3898UDC     C842875  19.913   0.467   7.123  0.0384 -0.4769  0.5279
 3898UDC     C942876  19.848   0.613   7.108  0.5114  1.1965  0.4262
 3898UDC    C1042877  19.720   0.641   7.187 -0.5558  0.1438 -0.4463
 3898UDC    C1142878  19.729   0.766   7.279  0.1469 -0.3313 -0.4932
 3899UDC     C142879  16.864   2.833  14.742  0.5011  0.7419 -1.2765
 3899UDC     C242880  17.013   2.836  14.711 -0.9387 -0.0437 -0.3773
 3899UDC     C342881  17.055   2.745  14.596 -0.4875  0.1667  0.7061
 3899UDC     C442882  17.190   2.804  14.545  0.5861  0.3435 -0.4783
 3899UDC     C542883  17.307   2.747  14.627 -1.1513  1.1711  2.1707
 3899UDC     C642884  17.338   2.598  14.605 -0.7333  0.1263  1.1256
 3899UDC     C742885  17.436   2.571  14.488  0.8297 -0.3495  0.1132
 3899UDC     C842886  17.584   2.573  14.503 -0.9171 -0.5285  0.1649
 3899UDC     C942887  17.651   2.541  14.367 -0.4790 -1.9690 -0.3582
 3899UDC    C1042888  17.781   2.630  14.347 -0.4890  0.5826 -0.1212
 3899UDC    C1142889  17.755   2.784  14.350  0.3788 -0.2787  0.4731
 3900UDC     C142890  12.979   9.530   0.127  0.2716 -0.8506  0.6162
 3900UDC     C242891  13.086   9.633   0.084  0.5395 -0.3901 -0.9543
 3900UDC     C342892  13.047   9.711  -0.042 -0.9007  0.8881 -0.4331
 3900UDC     C442893  13.145   9.801  -0.118 -0.7780 -0.8874 -1.3097
 3900UDC     C542894  13.210   9.904  -0.019  0.2465 -0.6083 -0.4250
 3900UDC     C642895  13.106   9.994   0.054  0.0151 -1.7362  0.3749
 3900UDC     C742896  13.165  10.103   0.146 -1.1458 -0.2945  0.7504
 3900UDC     C842897  13.061  10.177   0.227 -0.7616 -0.9628 -0.3022
 3900UDC     C942898  13.016  10.118   0.361  0.0029 -0.1575 -0.9700
 3900UDC    C1042899  13.124  10.099   0.473 -0.0787 -1.1880  0.4355
 3900UDC    C1142900  13.087  10.027   0.606 -0.6011  0.6232  0.1803
 3901UDC     C142901  10.564  16.681  12.568 -0.1983 -1.0529  0.3016
 3901UDC     C242902  10.619  16.670  12.712  0.1394 -0.9708  1.5631
 3901UDC     C342903  10.681  16.535  12.736 -0.0481 -0.4933  0.6831
 3901UDC     C442904  10.749  16.514  12.879 -0.0087  0.3330  1.4533
 3901UDC     C542905  10.793  16.366  12.904 -1.4278 -0.7212  0.4033
 3901UDC     C642906  10.717  16.296  13.017 -0.7530  0.6908  1.3730
 3901UDC     C742907  10.700  16.395  13.131 -1.0893 -1.2439 -1.2392
 3901UDC     C842908  10.602  16.339  13.236  0.6213  0.2558  0.2037
 3901UDC     C942909  10.600  16.420  13.365  0.5289  0.9987  0.1248
 3901UDC    C1042910  10.522  16.383  13.498 -0.2699 -0.6602  0.5653
 3901UDC    C1142911  10.549  16.454  13.631  0.1872  0.4580  0.4717
 3902UDC     C142912  18.776   0.247  11.111 -0.1448 -0.0241  0.2988
 3902UDC     C242913  18.897   0.339  11.119  0.6655  0.5967  0.4621
 3902UDC     C342914  18.918   0.449  11.009 -0.4321  1.6717  0.0690
 3902UDC     C442915  19.036   0.538  11.023  0.0296 -0.5601  0.0468
 3902UDC     C542916  19.015   0.620  11.152  0.5898 -0.7639 -0.2845
 3902UDC     C642917  19.094   0.753  11.138  0.1723 -0.1655  0.2921
 3902UDC     C742918  19.242   0.716  11.119  0.1532 -1.1293 -0.2341
 3902UDC     C842919  19.335   0.833  11.074 -0.8410  1.0036 -1.2181
 3902UDC     C942920  19.458   0.863  11.164 -0.8728 -0.2767  0.0268
 3902UDC    C1042921  19.538   0.981  11.107  0.3730 -0.4845 -0.5376
 3902UDC    C1142922  19.677   0.979  11.173 -0.2165 -0.6298 -0.6297
 3903UDC     C142923   9.297   0.525   0.224 -0.1690  0.0399 -1.1590
 3903UDC     C242924   9.239   0.501   0.364 -0.2315  1.3134 -0.0737
 3903UDC     C342925   9.154   0.628   0.407  0.2692  0.2818  0.2978
 3903UDC     C442926   9.042   0.579   0.499  0.3132 -1.4204 -0.7868
 3903UDC     C542927   8.964   0.688   0.580  0.1501 -0.0987  0.4224
 3903UDC     C642928   8.856   0.634   0.670 -0.6627  0.5161 -1.2307
 3903UDC     C742929   8.803   0.748   0.764  0.5713  0.1351  0.4897
 3903UDC     C842930   8.905   0.863   0.802 -0.4575 -0.4218  0.3441
 3903UDC     C942931   8.871   0.991   0.891  0.4963  0.7456 -0.1551
 3903UDC    C1042932   8.981   1.087   0.933  0.7033 -1.0611 -0.0720
 3903UDC    C1142933   8.927   1.210   1.004  0.6904 -1.2913  0.7735
 3904UDC     C142934   2.402  10.083   8.629  1.1748  0.5631  0.5023
 3904UDC     C242935   2.540  10.012   8.658  0.8992 -0.0238 -0.1860
 3904UDC     C342936   2.584   9.897   8.573 -0.0602  0.5591  0.6154
 3904UDC     C442937   2.729   9.843   8.613  0.5639 -1.1766  0.0181
 3904UDC     C542938   2.794   9.711   8.566 -0.2193 -0.2722 -0.1314
 3904UDC     C642939   2.921   9.666   8.633  0.6437 -1.2848 -0.8181
 3904UDC     C742940   2.968   9.547   8.552  0.7921  0.9835 -0.4584
 3904UDC     C842941   3.030   9.595   8.424  0.0887 -0.6251  0.2007
 3904UDC     C942942   3.174   9.655   8.431  0.1845  0.1015  0.7812
 3904UDC    C1042943   3.254   9.544   8.498  0.0109  0.0610 -0.4172
 3904UDC    C1142944   3.326   9.461   8.397 -0.5934  0.5969  1.4745
 3905UDC     C142945  10.466   9.529  11.725 -0.7491 -0.4919 -0.2531
 3905UDC     C242946  10.564   9.609  11.648 -1.7746 -0.2665 -0.8696
 3905UDC     C342947  10.641   9.701  11.751  0.3507  0.6693 -0.0044
 3905UDC     C442948  10.531   9.763  11.836  0.7979  0.5930 -1.2327
 3905UDC     C542949  10.593   9.857  11.945  0.2327  0.5438  0.5914
 3905UDC     C642950  10.518   9.981  12.000  1.0282  0.4461 -0.5559
 3905UDC     C742951  10.603  10.088  12.068 -1.0569  0.6228  0.3842
 3905UDC     C842952  10.714  10.127  11.963  0.2443  0.6442  0.3988
 3905UDC     C942953  10.828  10.214  12.018 -0.1606 -0.4872  0.2755
 3905UDC    C1042954  10.967  10.194  11.946  0.5756  0.5306  0.0410
 3905UDC    C1142955  11.078  10.298  11.961  0.0078  0.0055  0.5427
 3906UDC     C142956  15.172   9.262   8.660  0.3840  0.6707 -0.6684
 3906UDC     C242957  15.291   9.308   8.737  1.6617 -0.6200  0.4056
 3906UDC     C342958  15.299   9.269   8.891 -0.2491 -0.2174 -0.3305
 3906UDC     C442959  15.181   9.330   8.972  1.3667  0.3729 -0.0057
 3906UDC     C542960  15.145   9.239   9.089  0.1511 -0.3242 -1.1735
 3906UDC     C642961  15.027   9.283   9.173  0.2863  0.0827 -0.8700
 3906UDC     C742962  14.895   9.250   9.093 -0.3447 -1.0373 -0.6446
 3906UDC     C842963  14.872   9.102   9.084  0.8538  0.6958 -0.8522
 3906UDC     C942964  14.739   9.041   9.051  0.2657 -0.9879 -0.8378
 3906UDC    C1042965  14.607   9.103   9.108 -0.3196  0.2678  0.7265
 3906UDC    C1142966  14.607   9.116   9.261 -0.2707  0.7632 -0.6497
 3907UDC     C142967   1.604   3.185   4.337 -0.6244 -1.1912  0.4763
 3907UDC     C242968   1.511   3.290   4.270  0.1227  0.1332 -0.4806
 3907UDC     C342969   1.576   3.390   4.188  0.7502 -1.0242  0.6611
 3907UDC     C442970   1.458   3.456   4.116 -0.4309  0.1600 -0.5917
 3907UDC     C542971   1.401   3.582   4.194  0.9478  0.0657 -0.4153
 3907UDC     C642972   1.279   3.658   4.140 -0.4459  0.2255  0.3143
 3907UDC     C742973   1.268   3.800   4.202  1.4267 -0.6123  0.1613
 3907UDC     C842974   1.147   3.876   4.146 -0.0487  0.3567  0.8760
 3907UDC     C942975   1.032   3.887   4.242 -0.5111 -0.8453  1.2204
 3907UDC    C1042976   1.049   3.962   4.373 -0.6468  0.2279 -0.9215
 3907UDC    C1142977   0.929   3.950   4.476 -0.4715  0.1912 -0.5980
 3908UDC     C142978   2.079  15.301   6.015  1.0249  0.6473 -0.0740
 3908UDC     C242979   2.161  15.168   5.997  0.7042 -0.2493 -0.2495
 3908UDC     C342980   2.315  15.182   6.019  0.6927  0.6997 -0.2351
 3908UDC     C442981   2.366  15.255   6.149 -0.0148  0.0381  1.5753
 3908UDC     C542982   2.496  15.344   6.131  0.1666  0.5584 -0.9756
 3908UDC     C642983   2.560  15.371   6.269  0.2200 -1.0584 -0.3128
 3908UDC     C742984   2.683  15.457   6.270 -0.7881 -0.1728  0.0844
 3908UDC     C842985   2.818  15.390   6.234 -0.4458 -0.0570  0.3191
 3908UDC     C942986   2.838  15.243   6.285 -0.1429 -0.2083 -0.6304
 3908UDC    C1042987   2.984  15.206   6.332  0.4191 -0.0662  0.9453
 3908UDC    C1142988   3.006  15.058   6.334 -0.8330  0.7858  0.1815
 3909UDC     C142989   2.735  12.939  17.085 -0.5177  0.1291 -0.2567
 3909UDC     C242990   2.596  12.954  17.137 -0.5744  0.4015 -0.2659
 3909UDC     C342991   2.491  13.003  17.041  0.9257  0.4141 -0.2108
 3909UDC     C442992   2.518  13.152  17.006 -1.5773  1.3666 -0.0776
 3909UDC     C542993   2.477  13.243  17.126  0.4721  0.0367 -0.9945
 3909UDC     C642994   2.495  13.392  17.104 -1.0046 -0.2913 -0.2135
 3909UDC     C742995   2.512  13.488  17.223 -0.1349 -0.2073  0.4640
 3909UDC     C842996   2.498  13.642  17.191  0.4791 -0.6473 -0.0487
 3909UDC     C942997   2.566  13.732  17.293 -0.2044  0.2338  0.5200
 3909UDC    C1042998   2.538  13.881  17.297  0.5247 -0.6589  0.2394
 3909UDC    C1142999   2.609  13.964  17.403 -0.8774 -0.3487  0.6113
 3910UDC     C143000  13.024   7.139  16.258 -0.2800 -0.1384  0.2114
 3910UDC     C243001  13.053   7.290  16.299  0.2176  0.8223 -1.0927
 3910UDC     C343002  13.199   7.335  16.292 -0.2429 -0.4009  1.1544
 3910UDC     C443003  13.206   7.481  16.259  0.4619  1.3264 -1.0035
 3910UDC     C543004  13.163   7.514  16.123  0.2012 -0.3729 -0.3216
 3910UDC     C643005  13.277   7.533  16.024  0.1250 -0.8957 -0.2830
 3910UDC     C743006  13.255   7.523  15.872 -0.1704 -0.4231  0.2600
 3910UDC     C843007  13.325   7.401  15.812 -0.1515  0.2986  0.0045
 3910UDC     C943008  13.326   7.414  15.662  0.0403  1.0440  0.2041
 3910UDC    C1043009  13.183   7.430  15.595 -0.1404 -0.8555  0.1339
 3910UDC    C1143010  13.137   7.314  15.496  0.3909  0.0469 -0.0167
 3911UDC     C143011   2.233  15.615   4.508 -0.9254  0.0739 -0.5232
 3911UDC     C243012   2.148  15.549   4.614  0.3420  1.2195  0.1750
 3911UDC     C343013   2.004  15.530   4.568  0.2511  0.0216 -0.4758
 3911UDC     C443014   1.917  15.460   4.669 -0.1999 -0.0381  0.7462
 3911UDC     C543015   1.975  15.486   4.806  0.5672  0.5270  0.6840
 3911UDC     C643016   1.871  15.486   4.920 -0.8648 -0.6023  0.7100
 3911UDC     C743017   1.758  15.383   4.899  0.4792 -0.6761  0.3477
 3911UDC     C843018   1.647  15.341   4.998 -0.4591 -0.0399 -0.0170
 3911UDC     C943019   1.590  15.199   4.984  0.6279  0.4679  0.6699
 3911UDC    C1043020   1.691  15.084   5.018  0.9879  0.2357 -0.8046
 3911UDC    C1143021   1.758  15.136   5.144 -0.2393 -1.1365 -1.2367
 3912UDC     C143022  19.135   7.117  15.537 -0.3175  0.0956  0.5191
 3912UDC     C243023  19.220   7.102  15.410  0.2398  0.4521  0.2873
 3912UDC     C343024  19.261   7.214  15.314 -0.6321  0.4082 -1.2720
 3912UDC     C443025  19.347   7.154  15.207 -0.2457  1.0857 -0.5098
 3912UDC     C543026  19.467   7.234  15.156 -0.3383 -0.0544 -0.4707
 3912UDC     C643027  19.538   7.185  15.031  0.2340  0.5866 -0.2844
 3912UDC     C743028  19.669   7.264  15.005  0.8208 -0.5627  0.6794
 3912UDC     C843029  19.636   7.410  15.001  0.0083 -0.5189  0.0027
 3912UDC     C943030  19.738   7.486  15.093 -0.2634  0.3923  0.3581
 3912UDC    C1043031  19.680   7.618  15.131  0.9735 -0.5316 -0.0463
 3912UDC    C1143032  19.680   7.733  15.029  0.3758  0.2141  0.2573
 3913UDC     C143033   1.003  10.813  10.089 -0.0783  0.7292  0.1811
 3913UDC     C243034   1.083  10.686  10.107  0.2471 -0.8080  0.9519
 3913UDC     C343035   1.015  10.571  10.177 -1.4219  0.4428  0.9673
 3913UDC     C443036   1.008  10.594  10.329 -0.3059 -0.7422  0.3796
 3913UDC     C543037   0.887  10.659  10.394  0.7525 -0.5771  1.4126
 3913UDC     C643038   0.763  10.661  10.292 -0.9287 -0.7805  0.6576
 3913UDC     C743039   0.638  10.571  10.322  0.3963 -0.1464  0.3969
 3913UDC     C843040   0.516  10.575  10.222  0.5021 -0.6561  0.0936
 3913UDC     C943041   0.380  10.542  10.272 -0.3450  0.4551  0.8148
 3913UDC    C1043042   0.277  10.609  10.174  0.6199 -0.3972 -0.3345
 3913UDC    C1143043   0.273  10.763  10.149  1.2182  0.1408  0.2074
 3914UDC     C143044  17.215  11.396   7.014  0.5485  0.6552  0.1344
 3914UDC     C243045  17.077  11.445   7.041  1.0519  0.1907 -0.8359
 3914UDC     C343046  16.967  11.351   7.022  0.5448 -0.0879  0.0824
 3914UDC     C443047  16.829  11.408   7.011 -1.3979  0.1265  0.7556
 3914UDC     C543048  16.718  11.304   7.026  0.0307 -0.3361 -0.2436
 3914UDC     C643049  16.764  11.191   6.925  1.1556 -1.2784  0.2819
 3914UDC     C743050  16.671  11.077   6.908  0.7785 -0.0967  0.7827
 3914UDC     C843051  16.738  10.948   6.848  1.0770  0.1936 -0.1547
 3914UDC     C943052  16.809  10.975   6.710  0.8786  0.5552  0.5622
 3914UDC    C1043053  16.735  10.950   6.584  0.0034  0.2027  0.2728
 3914UDC    C1143054  16.806  10.920   6.453  0.5032  0.0774 -0.0575
 3915UDC     C143055  10.918   5.859   3.858 -0.3882 -0.5748  0.1878
 3915UDC     C243056  11.072   5.873   3.885  0.5302  0.4888 -0.1824
 3915UDC     C343057  11.136   5.792   3.773 -0.5382 -0.1191  0.3922
 3915UDC     C443058  11.032   5.694   3.720  0.3190 -0.1934  0.3246
 3915UDC     C543059  11.084   5.601   3.619 -0.3835 -0.2915  0.4591
 3915UDC     C643060  11.166   5.488   3.686 -0.4725 -0.3382 -0.8649
 3915UDC     C743061  11.212   5.399   3.576  0.8433 -0.8171  0.7123
 3915UDC     C843062  11.252   5.246   3.608  0.1694 -1.2996 -0.3951
 3915UDC     C943063  11.316   5.169   3.493  1.3188  0.7828 -0.0753
 3915UDC    C1043064  11.406   5.262   3.408 -1.1106 -0.9496 -0.4769
 3915UDC    C1143065  11.556   5.238   3.433  0.7922  0.6161  0.8250
 3916UDC     C143066  14.399  18.264  17.159  0.9131  0.5785  0.4768
 3916UDC     C243067  14.278  18.312  17.251 -0.9662  0.2690  0.1296
 3916UDC     C343068  14.310  18.455  17.302  0.3595  0.5591  0.3185
 3916UDC     C443069  14.458  18.514  17.281  0.7608 -0.8358  0.6883
 3916UDC     C543070  14.468  18.664  17.259  0.3237  0.3711  0.7440
 3916UDC     C643071  14.407  18.724  17.127 -0.4167 -0.3794  0.4007
 3916UDC     C743072  14.397  18.879  17.139  0.1152 -0.9807  0.2927
 3916UDC     C843073  14.264  18.913  17.196 -0.2856  1.5604 -0.3434
 3916UDC     C943074  14.206  19.051  17.149 -0.7128  0.7238 -0.5095
 3916UDC    C1043075  14.188  19.071  17.000  1.3998 -0.5673  0.6247
 3916UDC    C1143076  14.096  18.966  16.943  0.4150 -0.1636 -0.2025
 3917UDC     C143077  16.139   6.358  12.777  0.0157  0.3260  0.1179
 3917UDC     C243078  16.206   6.231  12.722  0.6864  0.9337  1.0012
 3917UDC     C343079  16.222   6.240  12.573  0.1146  0.1135 -1.1075
 3917UDC     C443080  16.134   6.146  12.491 -0.5262 -0.0514 -0.1271
 3917UDC     C543081  16.169   6.129  12.343  0.0238 -0.6750 -0.5835
 3917UDC     C643082  16.093   6.011  12.273 -0.5139  0.5109 -0.1827
 3917UDC     C743083  16.109   5.982  12.124 -0.2117 -0.4835  1.0406
 3917UDC     C843084  16.080   5.848  12.056 -0.9445  0.2544 -0.2764
 3917UDC     C943085  16.144   5.854  11.912 -0.1591 -0.9372 -0.7644
 3917UDC    C1043086  16.071   5.968  11.834 -0.4782  0.4589  0.1796
 3917UDC    C1143087  15.934   5.925  11.778  0.1601 -0.5116  0.6544
 3918UDC     C143088   7.575   0.203  18.612 -0.5721  0.8559  0.3459
 3918UDC     C243089   7.648   0.340  18.589  0.5051 -0.2374 -1.7252
 3918UDC     C343090   7.635   0.418  18.721 -0.4237 -0.3296 -0.6399
 3918UDC     C443091   7.739   0.366  18.821  0.1624 -0.2684 -0.8479
 3918UDC     C543092   7.762   0.444  18.958 -1.1184  0.2079  0.3998
 3918UDC     C643093   7.669   0.444  19.082  0.6625 -0.0149  0.6134
 3918UDC     C743094   7.676   0.304  19.139  0.0038  1.2834 -0.3006
 3918UDC     C843095   7.570   0.213  19.082  0.7462  0.2097 -0.5573
 3918UDC     C943096   7.541   0.075  19.147 -1.3712  0.5445  0.5403
 3918UDC    C1043097   7.658  -0.030  19.113  0.2824 -0.5640  0.7809
 3918UDC    C1143098   7.636  -0.162  19.188 -0.5220  0.0481 -0.0812
 3919UDC     C143099   0.784  16.832   0.627 -0.4073 -0.5568 -0.3918
 3919UDC     C243100   0.634  16.831   0.592  0.4345 -0.7907  0.4815
 3919UDC     C343101   0.599  16.839   0.443  0.5199  0.7717 -0.5500
 3919UDC     C443102   0.447  16.802   0.413  0.3365  0.9108  0.2427
 3919UDC     C543103   0.421  16.793   0.265 -1.8090 -0.1625 -0.6815
 3919UDC     C643104   0.505  16.669   0.212  0.0672  0.7306 -0.1858
 3919UDC     C743105   0.509  16.641   0.056 -0.7766 -0.1669 -0.3636
 3919UDC     C843106   0.646  16.670  -0.009  0.2481 -0.4120 -1.3910
 3919UDC     C943107   0.749  16.557  -0.019 -0.1053 -0.8466  0.8251
 3919UDC    C1043108   0.675  16.439  -0.084  0.1702  0.0779  0.5944
 3919UDC    C1143109   0.784  16.329  -0.121 -0.1498 -0.6433  0.4529
 3920UDC     C143110   6.918   2.127   7.981  0.0752 -0.4634  0.1505
 3920UDC     C243111   7.039   2.138   8.080  0.0137  0.4353  0.0606
 3920UDC     C343112   7.155   2.220   8.018 -1.4210 -0.1301 -0.3972
 3920UDC     C443113   7.134   2.373   8.019 -0.0876 -0.1100 -0.7613
 3920UDC     C543114   7.256   2.439   7.947 -0.7473 -1.0669  0.2242
 3920UDC     C643115   7.232   2.444   7.799 -0.0450 -0.6708 -0.0935
 3920UDC     C743116   7.376   2.421   7.736  0.7914 -0.3563  0.2191
 3920UDC     C843117   7.487   2.524   7.756  0.1986  0.3115  0.3374
 3920UDC     C943118   7.606   2.473   7.846  0.2299 -0.5113 -1.3649
 3920UDC    C1043119   7.726   2.565   7.861  0.3460 -1.2909  0.3829
 3920UDC    C1143120   7.678   2.702   7.919  0.4313  0.1524 -0.2969
 3921UDC     C143121   4.906  15.633  18.191  0.2346 -0.0979 -0.2232
 3921UDC     C243122   5.048  15.658  18.254 -0.7222  1.0196 -0.0059
 3921UDC     C343123   5.066  15.556  18.362 -0.1326  0.1625  0.7203
 3921UDC     C443124   5.142  15.437  18.306 -1.4353  0.1223 -0.8096
 3921UDC     C543125   5.220  15.358  18.415  0.5700 -0.0804  0.3804
 3921UDC     C643126   5.333  15.257  18.383 -0.6836 -0.7741  1.0144
 3921UDC     C743127   5.434  15.336  18.302 -0.4770 -0.0677 -0.6197
 3921UDC     C843128   5.552  15.256  18.242 -0.3727 -0.6409  0.2055
 3921UDC     C943129   5.590  15.297  18.096  0.7237 -0.4556  0.6347
 3921UDC    C1043130   5.627  15.191  17.991 -0.7524 -0.6942 -0.5034
 3921UDC    C1143131   5.611  15.055  18.052  0.3041  0.7905  1.0430
 3922UDC     C143132  17.975  14.864   8.375  0.3507  0.9845 -0.1566
 3922UDC     C243133  18.095  14.933   8.440 -0.7400  1.0719  0.1126
 3922UDC     C343134  18.044  15.052   8.513 -0.0199 -0.6958 -1.1702
 3922UDC     C443135  18.128  15.129   8.609 -1.4574  0.5913 -0.1514
 3922UDC     C543136  18.078  15.240   8.706 -0.5246  1.1596  0.1103
 3922UDC     C643137  18.086  15.393   8.670  0.4170  0.1260 -0.2916
 3922UDC     C743138  18.026  15.474   8.787 -1.4415 -0.5765 -0.3798
 3922UDC     C843139  18.035  15.622   8.796 -0.3255  0.3856  1.0630
 3922UDC     C943140  17.970  15.684   8.913 -0.5676 -0.2664 -1.3550
 3922UDC    C1043141  17.820  15.680   8.928  0.5031 -0.7619  0.2516
 3922UDC    C1143142  17.768  15.626   9.062 -0.3473 -0.7587  0.4245
 3923UDC     C143143  16.982   6.104  10.531 -0.6063 -0.4101  0.1176
 3923UDC     C243144  17.115   6.122  10.612  1.0281  0.0078 -0.6320
 3923UDC     C343145  17.234   6.201  10.543  0.4062 -0.6513 -0.5216
 3923UDC     C443146  17.228   6.354  10.557 -0.1900 -0.5477 -0.0452
 3923UDC     C543147  17.337   6.417  10.471 -0.0742 -0.2683 -1.4233
 3923UDC     C643148  17.475   6.372  10.524  0.7396 -0.4955  0.0011
 3923UDC     C743149  17.599   6.419  10.439 -0.6810 -0.7138  0.1134
 3923UDC     C843150  17.583   6.382  10.292  0.1360  0.1417  0.0016
 3923UDC     C943151  17.698   6.447  10.209  0.2122 -0.4667 -0.0595
 3923UDC    C1043152  17.846   6.427  10.252  0.3120  0.1992  0.3785
 3923UDC    C1143153  17.926   6.337  10.147 -0.3828 -1.5009 -0.3332
 3924UDC     C143154   7.108  12.323  14.459 -0.2659  0.1136 -0.2225
 3924UDC     C243155   7.261  12.301  14.447  0.2260 -0.5303  0.4386
 3924UDC     C343156   7.326  12.440  14.410  0.3772 -0.0970  0.0585
 3924UDC     C443157   7.257  12.479  14.284 -0.3177  0.3722  1.4119
 3924UDC     C543158   7.313  12.614  14.245 -0.4483 -0.4685  0.1115
 3924UDC     C643159   7.216  12.719  14.188 -0.1334 -0.7340  0.2146
 3924UDC     C743160   7.159  12.849  14.257 -1.5478  0.3277  0.0717
 3924UDC     C843161   7.062  12.831  14.373 -0.1424  0.9054  0.6057
 3924UDC     C943162   6.941  12.920  14.358 -0.2125 -0.4540  0.7132
 3924UDC    C1043163   6.861  12.956  14.484 -0.1599  0.1679 -0.5566
 3924UDC    C1143164   6.919  13.046  14.592 -0.6452 -0.2232 -0.2957
 3925UDC     C143165   4.676  15.733  10.242 -1.0953  0.1258  0.7316
 3925UDC     C243166   4.612  15.842  10.321  0.1499 -0.1569  0.3919
 3925UDC     C343167   4.562  15.962  10.237  0.5376  0.5152 -0.4773
 3925UDC     C443168   4.679  16.064  10.214  0.8654 -1.0955  0.0974
 3925UDC     C543169   4.650  16.171  10.108 -0.6898 -0.3058 -0.9240
 3925UDC     C643170   4.629  16.312  10.170 -0.2761 -0.0417 -1.3345
 3925UDC     C743171   4.628  16.433  10.079 -0.0599  0.7631  0.3084
 3925UDC     C843172   4.771  16.474  10.042  0.9062  0.4648  0.2749
 3925UDC     C943173   4.777  16.597   9.950 -0.0506 -1.8015  0.4201
 3925UDC    C1043174   4.848  16.724  10.003  0.0050 -0.4834  1.1628
 3925UDC    C1143175   4.997  16.698   9.952 -0.6447 -0.0587 -0.4732
 3926UDC     C143176  10.106  15.214   8.935  0.0913 -0.3519 -0.4002
 3926UDC     C243177   9.955  15.242   8.905  0.1027  0.4547 -0.2664
 3926UDC     C343178   9.855  15.241   9.025 -0.7151 -0.0394 -0.3814
 3926UDC     C443179   9.721  15.201   8.957 -0.8138 -0.4386  2.0926
 3926UDC     C543180   9.637  15.143   9.068  0.2076  0.2821 -0.0674
 3926UDC     C643181   9.508  15.089   9.004  0.4094 -0.4490  0.9286
 3926UDC     C743182   9.405  15.032   9.099  0.0090 -1.5116 -0.6871
 3926UDC     C843183   9.266  15.023   9.041 -0.6892 -0.1276 -0.3582
 3926UDC     C943184   9.192  14.902   9.096  0.1494 -0.4158 -0.1050
 3926UDC    C1043185   9.150  14.907   9.246 -0.2227  0.3123 -0.2349
 3926UDC    C1143186   9.151  15.041   9.330  0.1283  1.1910 -0.1101
 3927UDC     C143187  12.645   8.489  17.348 -0.4852  0.4144  0.0044
 3927UDC     C243188  12.494   8.501  17.322  0.9673 -1.5086 -0.2449
 3927UDC     C343189  12.419   8.514  17.448 -0.6369  0.7078  0.2950
 3927UDC     C443190  12.450   8.638  17.529  0.6459 -0.5833 -1.3001
 3927UDC     C543191  12.362   8.640  17.662  0.6589  0.8248  0.0643
 3927UDC     C643192  12.406   8.759  17.747  0.0510 -0.0527 -0.0499
 3927UDC     C743193  12.360   8.742  17.896 -0.2632 -0.1789  0.6463
 3927UDC     C843194  12.412   8.859  17.984 -0.1338  0.3990 -0.1354
 3927UDC     C943195  12.377   8.858  18.135  0.2485 -0.6334  0.2759
 3927UDC    C1043196  12.221   8.888  18.154 -0.3833  0.3870  0.2835
 3927UDC    C1143197  12.196   8.880  18.308 -0.2602  0.1209  0.8821
 3928UDC     C143198   9.629  14.631  19.408 -0.0419  0.1180 -0.4987
 3928UDC     C243199   9.596  14.605  19.564  1.3666  0.8999  0.1125
 3928UDC     C343200   9.635  14.723  19.663  0.7505  0.3588 -0.0924
 3928UDC     C443201   9.521  14.817  19.682 -0.5851 -0.7954  0.4535
 3928UDC     C543202   9.541  14.956  19.749  0.0776 -0.4348 -1.0782
 3928UDC     C643203   9.400  15.018  19.767 -0.2753 -0.5989  0.7512
 3928UDC     C743204   9.388  15.162  19.831  0.2739 -0.7456 -1.1684
 3928UDC     C843205   9.458  15.276  19.751 -0.4863  0.6375  0.1597
 3928UDC     C943206   9.455  15.420  19.811  1.3046 -0.0589  0.4555
 3928UDC    C1043207   9.502  15.535  19.718 -0.2450 -0.2806 -1.3283
 3928UDC    C1143208   9.563  15.662  19.783 -0.1791 -0.4606  0.5562
 3929UDC     C143209  10.838  18.891  16.701 -0.2549 -0.1680  0.4180
 3929UDC     C243210  10.983  18.842  16.681 -0.5236 -0.4044  0.6584
 3929UDC     C343211  11.035  18.788  16.816 -0.8160  0.5390 -0.2599
 3929UDC     C443212  11.011  18.885  16.932 -0.3728  0.1196 -0.6202
 3929UDC     C543213  11.068  18.856  17.082  0.4353 -0.8341  0.3887
 3929UDC     C643214  11.006  18.749  17.169  0.0663 -0.3669 -0.2751
 3929UDC     C743215  10.860  18.806  17.196 -0.5196 -0.7215 -0.4293
 3929UDC     C843216  10.781  18.702  17.279  0.8073  0.7811 -0.0336
 3929UDC     C943217  10.647  18.752  17.334 -0.1375 -0.1771  0.0594
 3929UDC    C1043218  10.527  18.776  17.235  0.3167 -0.9867 -0.0788
 3929UDC    C1143219  10.482  18.639  17.179  0.3316  0.3386  0.3404
 3930UDC     C143220  17.477   0.846   8.283  0.4255 -0.1454 -0.7448
 3930UDC     C243221  17.501   0.705   8.342 -1.7515  0.6935  0.1435
 3930UDC     C343222  17.638   0.636   8.315  0.7740 -0.3602  0.0969
 3930UDC     C443223  17.765   0.685   8.389  0.5009  0.9595 -1.0032
 3930UDC     C543224  17.758   0.682   8.547  0.0567 -0.1712 -0.3745
 3930UDC     C643225  17.884   0.732   8.608 -0.6050  0.1777 -0.5645
 3930UDC     C743226  17.993   0.633   8.566 -0.2347  0.1737  0.6204
 3930UDC     C843227  18.107   0.629   8.657  0.5427  0.8915 -0.1065
 3930UDC     C943228  18.063   0.602   8.812 -0.7174 -0.0269  0.7127
 3930UDC    C1043229  18.137   0.686   8.923 -0.5583  0.0956  0.6044
 3930UDC    C1143230  18.106   0.624   9.065  0.4915  0.0395 -0.4470
 3931UDC     C143231   5.342  10.335  12.235  0.8346 -0.7317  0.1290
 3931UDC     C243232   5.231  10.369  12.132  0.2517  0.4696 -0.4211
 3931UDC     C343233   5.260  10.506  12.066  0.3038 -0.5474  0.4865
 3931UDC     C443234   5.300  10.629  12.163  0.8620 -0.5383 -0.8045
 3931UDC     C543235   5.193  10.724  12.234  0.1739  0.4687 -0.4767
 3931UDC     C643236   5.236  10.845  12.314  0.5045  0.1298  0.4205
 3931UDC     C743237   5.371  10.907  12.270 -0.2892  0.0775  0.3562
 3931UDC     C843238   5.360  11.016  12.158 -0.4210 -0.8731 -0.3673
 3931UDC     C943239   5.493  11.082  12.117 -0.6435 -0.3957 -0.3076
 3931UDC    C1043240   5.599  10.972  12.118 -0.9990 -0.6652 -0.6047
 3931UDC    C1143241   5.602  10.886  11.992 -0.2530  0.0934 -0.7879
 3932UDC     C143242   6.911  10.123   9.705 -0.4751 -0.6078  0.8570
 3932UDC     C243243   7.037  10.066   9.628 -0.2168 -0.3205  1.2199
 3932UDC     C343244   7.030  10.146   9.494  0.3432  0.3430 -0.2532
 3932UDC     C443245   7.098  10.289   9.503 -0.1640 -0.1544  0.5444
 3932UDC     C543246   7.222  10.319   9.415 -0.5123 -0.9114 -0.7023
 3932UDC     C643247   7.219  10.276   9.269 -0.8197  0.2454  0.2864
 3932UDC     C743248   7.280  10.372   9.166  0.4785 -0.2025  0.4656
 3932UDC     C843249   7.422  10.427   9.186 -0.1951 -0.1577  0.5886
 3932UDC     C943250   7.447  10.536   9.289  0.8678 -0.6214  0.9431
 3932UDC    C1043251   7.594  10.570   9.290  0.1459  0.2991 -0.9043
 3932UDC    C1143252   7.681  10.449   9.343  0.5636  0.2092  0.8662
 3933UDC     C143253  10.959   0.022   8.270  0.6915  0.4167  0.6041
 3933UDC     C243254  10.823  -0.007   8.197  0.4543  0.3075 -0.5756
 3933UDC     C343255  10.719   0.099   8.228  1.0294  0.8901 -0.0471
 3933UDC     C443256  10.597   0.116   8.135  0.8634  0.3777  0.6839
 3933UDC     C543257  10.508   0.235   8.172 -0.1989 -0.1507 -0.2109
 3933UDC     C643258  10.585   0.366   8.153  0.6131 -0.9848  0.4425
 3933UDC     C743259  10.489   0.481   8.137  0.7924 -0.9129 -0.4248
 3933UDC     C843260  10.574   0.609   8.111 -0.2674  0.1622 -1.3098
 3933UDC     C943261  10.504   0.744   8.086 -0.1078 -0.1572  0.5712
 3933UDC    C1043262  10.583   0.870   8.040  0.5869  0.8503 -0.0890
 3933UDC    C1143263  10.670   0.932   8.150 -0.1286 -0.4802  0.3537
 3934UDC     C143264   3.639   0.505  17.873 -0.0853 -0.0534 -0.3383
 3934UDC     C243265   3.498   0.547  17.910 -0.3943 -0.7306  1.0246
 3934UDC     C343266   3.417   0.628  17.810 -0.8642  0.1984 -0.5962
 3934UDC     C443267   3.293   0.702  17.859  0.4662  0.5032  0.0038
 3934UDC     C543268   3.189   0.760  17.758  0.9603 -0.2566  0.8507
 3934UDC     C643269   3.043   0.790  17.817 -0.6677  0.6464 -0.3382
 3934UDC     C743270   2.968   0.656  17.845 -0.4842  0.3785  0.1848
 3934UDC     C843271   2.818   0.672  17.883 -0.7151  0.2590  0.3196
 3934UDC     C943272   2.779   0.516  17.884  0.0881 -0.6312  0.1280
 3934UDC    C1043273   2.630   0.515  17.920 -0.9109  0.3703  0.8395
 3934UDC    C1143274   2.548   0.561  17.800 -0.1266  0.8113  0.0877
 3935UDC     C143275   1.495   0.349  11.871  0.2811 -0.5497  0.4138
 3935UDC     C243276   1.460   0.401  12.015 -0.1582 -0.6424  0.0283
 3935UDC     C343277   1.329   0.477  12.017 -0.1760 -0.2239 -0.5827
 3935UDC     C443278   1.302   0.508  12.163  0.4843  0.7089  0.5238
 3935UDC     C543279   1.259   0.381  12.234  0.1243 -0.0521  0.4588
 3935UDC     C643280   1.206   0.383  12.375 -0.4967  0.3998  0.3389
 3935UDC     C743281   1.256   0.261  12.455  0.9181  0.4782 -0.6666
 3935UDC     C843282   1.256   0.276  12.607 -0.2837 -0.2730  0.8049
 3935UDC     C943283   1.344   0.391  12.646  0.4595 -0.6895 -0.2781
 3935UDC    C1043284   1.493   0.357  12.636 -0.7309  0.4659  0.3615
 3935UDC    C1143285   1.603   0.460  12.680  0.9880  0.3226  0.4257
 3936UDC     C143286  16.362  14.471  13.318 -0.6024  0.4254 -0.3308
 3936UDC     C243287  16.446  14.469  13.446  0.0498 -0.4049 -0.0189
 3936UDC     C343288  16.361  14.491  13.573  0.3574  0.4747  0.3108
 3936UDC     C443289  16.252  14.388  13.610 -0.0831  0.3290  0.0232
 3936UDC     C543290  16.168  14.432  13.726 -0.1134 -0.4876 -0.1847
 3936UDC     C643291  16.077  14.332  13.799 -0.7186 -0.6842  0.2604
 3936UDC     C743292  15.972  14.254  13.712 -0.4683  0.5519  0.7692
 3936UDC     C843293  15.907  14.130  13.788 -0.7581 -0.2597  0.0446
 3936UDC     C943294  15.756  14.112  13.791  0.0518 -0.8638  0.2095
 3936UDC    C1043295  15.675  14.184  13.891 -1.0378 -0.6933 -0.2362
 3936UDC    C1143296  15.660  14.338  13.861  1.0426 -1.2090  0.6556
 3937UDC     C143297  11.843   2.014  11.839 -0.2882  0.2488  0.7660
 3937UDC     C243298  11.930   2.122  11.895 -0.5684  0.3417 -0.8052
 3937UDC     C343299  11.885   2.265  11.877  0.0955  0.4520  0.5369
 3937UDC     C443300  11.990   2.365  11.935  0.5917  0.3553 -0.0524
 3937UDC     C543301  11.922   2.493  11.991 -0.8753 -0.7642 -0.6841
 3937UDC     C643302  12.036   2.589  12.040 -0.1001 -1.0425  0.4681
 3937UDC     C743303  12.151   2.602  11.933  0.5333  0.4768  1.5115
 3937UDC     C843304  12.276   2.672  11.994 -1.3531  0.9599 -0.3539
 3937UDC     C943305  12.281   2.823  12.023  0.1966  0.5852 -0.0548
 3937UDC    C1043306  12.409   2.905  12.056 -0.1091 -0.9156  1.3739
 3937UDC    C1143307  12.480   2.840  12.171  0.4966 -0.5786  0.3066
 3938UDC     C143308   1.349  10.680  12.151 -0.3066  0.1356 -0.4007
 3938UDC     C243309   1.209  10.745  12.148  0.5202  0.9465  1.1602
 3938UDC     C343310   1.219  10.890  12.106  0.2943  0.7213  0.6099
 3938UDC     C443311   1.112  10.966  12.185  0.6762 -0.4898  0.0572
 3938UDC     C543312   1.171  10.967  12.327  0.3754 -0.1122 -0.9305
 3938UDC     C643313   1.098  11.035  12.443  0.1881 -0.1294 -0.4171
 3938UDC     C743314   0.951  11.037  12.436  0.2751  0.9047 -0.5751
 3938UDC     C843315   0.859  11.123  12.521 -0.6469  0.4029  0.4685
 3938UDC     C943316   0.837  11.079  12.665 -0.1347  0.8058  0.3934
 3938UDC    C1043317   0.725  10.975  12.699  0.6044  0.0757 -0.0991
 3938UDC    C1143318   0.673  10.948  12.837 -1.1735 -0.1113  1.2185
 3939UDC     C143319  10.628  10.247   4.159 -0.3965  0.5596 -0.3574
 3939UDC     C243320  10.651  10.361   4.263  0.3233  0.0882 -0.2191
 3939UDC     C343321  10.793  10.364   4.325  0.6293  0.0199 -1.3648
 3939UDC     C443322  10.912  10.339   4.225  0.3605  0.1867  0.9354
 3939UDC     C543323  11.045  10.346   4.307  0.6801 -1.4339  1.0589
 3939UDC     C643324  11.162  10.296   4.226 -0.0873 -0.5837  0.3584
 3939UDC     C743325  11.296  10.355   4.278 -0.2643  0.2562 -1.1515
 3939UDC     C843326  11.373  10.258   4.367  1.9298 -0.3868  0.2033
 3939UDC     C943327  11.364  10.111   4.316 -0.4265  0.9638  0.0631
 3939UDC    C1043328  11.397  10.027   4.443 -0.2401  0.2545 -0.4122
 3939UDC    C1143329  11.271   9.981   4.532  0.2376  0.3250  0.9607
 3940UDC     C143330   9.375   8.278  18.551  0.7185 -0.2020  0.9609
 3940UDC     C243331   9.429   8.416  18.582 -0.1396 -0.8939 -1.0433
 3940UDC     C343332   9.541   8.480  18.492 -0.2584 -0.2417 -0.2866
 3940UDC     C443333   9.585   8.616  18.549  0.7328  0.6150  0.1286
 3940UDC     C543334   9.461   8.714  18.529 -0.3760 -0.7469  0.6870
 3940UDC     C643335   9.387   8.748  18.400  0.8068  0.1257  0.6730
 3940UDC     C743336   9.318   8.883  18.383 -0.0299 -1.6167  0.1689
 3940UDC     C843337   9.242   8.913  18.248  0.3714 -0.1666 -0.5222
 3940UDC     C943338   9.096   8.874  18.238 -0.3558  1.5399 -1.3249
 3940UDC    C1043339   9.024   8.914  18.111 -0.5010 -1.0023  0.1678
 3940UDC    C1143340   9.051   8.860  17.969  0.1961 -0.1939  0.4351
 3941UDC     C143341  15.009  17.618  12.158 -0.6498  1.5264  0.9377
 3941UDC     C243342  15.090  17.486  12.149  0.5925 -0.4209 -0.4519
 3941UDC     C343343  15.204  17.460  12.249  0.1607 -0.3586 -0.2473
 3941UDC     C443344  15.320  17.558  12.230  0.1206  0.5097 -0.4066
 3941UDC     C543345  15.292  17.693  12.308  0.8170  0.0960 -0.6609
 3941UDC     C643346  15.244  17.640  12.452 -1.3911 -0.6126  0.6083
 3941UDC     C743347  15.188  17.750  12.544 -0.0976  0.0970  0.0298
 3941UDC     C843348  15.176  17.707  12.694  0.1360  0.7150  0.5142
 3941UDC     C943349  15.076  17.799  12.766 -0.4935  0.0993 -1.3833
 3941UDC    C1043350  14.925  17.780  12.759  0.3347 -0.3091 -0.6904
 3941UDC    C1143351  14.875  17.741  12.619  0.3434 -0.2882  0.3251
 3942UDC     C143352   9.241   0.298   3.743 -0.6495  0.6292  0.5557
 3942UDC     C243353   9.237   0.165   3.672  0.4424 -0.1584 -0.6578
 3942UDC     C343354   9.275   0.177   3.530  0.7131 -0.1712  0.3285
 3942UDC     C443355   9.418   0.201   3.498  0.5445 -0.4433 -0.5558
 3942UDC     C543356   9.476   0.150   3.359  0.6214  1.4477 -1.1623
 3942UDC     C643357   9.627   0.108   3.376  0.8415  0.1113 -0.3766
 3942UDC     C743358   9.692   0.125   3.239 -0.4897  0.2126  0.7968
 3942UDC     C843359   9.689   0.272   3.190  0.4410  1.3544 -1.3171
 3942UDC     C943360   9.774   0.274   3.062 -1.0443  0.3094  0.3633
 3942UDC    C1043361   9.929   0.267   3.090  0.5769  0.5021 -0.2403
 3942UDC    C1143362   9.993   0.308   2.954  0.7043  0.1549  1.1541
 3943UDC     C143363  19.310   4.645  16.382 -1.5400  1.1997  0.5310
 3943UDC     C243364  19.184   4.698  16.450 -0.2392  0.7922  0.2617
 3943UDC     C343365  19.197   4.702  16.597 -0.0251 -1.1975 -0.3398
 3943UDC     C443366  19.069   4.758  16.651  0.6197  0.2311  0.6457
 3943UDC     C543367  19.059   4.723  16.798 -0.2688  0.4291  0.4907
 3943UDC     C643368  18.938   4.779  16.886 -0.5106 -0.2748  0.2433
 3943UDC     C743369  18.958   4.763  17.036  0.2821 -0.1103  0.1967
 3943UDC     C843370  18.861   4.867  17.116 -0.5512  0.0310 -1.1339
 3943UDC     C943371  18.865   5.021  17.106  0.2543 -0.8625 -0.7614
 3943UDC    C1043372  18.992   5.107  17.135  1.1320  0.8845 -0.9045
 3943UDC    C1143373  18.957   5.255  17.166  0.4212  0.5752  0.4257
 3944UDC     C143374   3.232  11.909  16.073 -0.3545 -0.7438 -0.2136
 3944UDC     C243375   3.084  11.894  16.110  0.2291 -0.2507 -0.0452
 3944UDC     C343376   3.000  11.854  15.983 -0.1550  0.1116 -0.0141
 3944UDC     C443377   2.985  11.972  15.887  0.7215  0.2573  0.3734
 3944UDC     C543378   2.860  12.044  15.937  1.0667 -1.1055  0.0763
 3944UDC     C643379   2.737  11.950  15.934 -0.1288 -0.3885 -0.8934
 3944UDC     C743380   2.595  12.007  15.957 -0.0254  0.0486 -0.3420
 3944UDC     C843381   2.504  12.009  15.828 -0.2129  0.0266 -1.3293
 3944UDC     C943382   2.533  12.144  15.751 -0.3212  0.4630 -0.5216
 3944UDC    C1043383   2.467  12.270  15.809 -0.0587 -0.1579  0.4248
 3944UDC    C1143384   2.339  12.292  15.734 -0.1628  0.4942 -0.2989
 3945UDC     C143385  18.012   6.826  16.243  0.4417  0.4881 -0.4218
 3945UDC     C243386  17.934   6.853  16.117  0.3875 -0.1345  0.9017
 3945UDC     C343387  17.946   6.995  16.054 -0.1825  1.0918 -0.0546
 3945UDC     C443388  17.808   7.065  16.074  0.1356  0.3205 -0.3714
 3945UDC     C543389  17.794   7.126  16.212  0.0861 -0.1406 -0.4966
 3945UDC     C643390  17.657   7.094  16.287  0.2321 -0.4726  0.7905
 3945UDC     C743391  17.543   7.152  16.192  0.2255  0.6893 -0.2809
 3945UDC     C843392  17.416   7.067  16.189  0.8709 -0.2864 -0.6113
 3945UDC     C943393  17.442   6.916  16.196 -0.3713  0.2359  0.5465
 3945UDC    C1043394  17.326   6.813  16.191 -0.4426  1.0523 -0.5246
 3945UDC    C1143395  17.338   6.704  16.300 -0.7577  0.9104 -0.1219
 3946UDC     C143396   8.837   9.536  17.150  0.7191 -0.5539 -0.2733
 3946UDC     C243397   8.803   9.539  17.001  0.0435 -1.0824 -0.7514
 3946UDC     C343398   8.813   9.679  16.923 -0.4970  0.8069 -1.1985
 3946UDC     C443399   8.804   9.649  16.777 -0.3641  0.0643  0.0651
 3946UDC     C543400   8.795   9.771  16.684  0.0789  0.4481 -0.3711
 3946UDC     C643401   8.909   9.872  16.699  0.0649 -0.0810 -0.2123
 3946UDC     C743402   9.029   9.824  16.623  0.3863 -0.1087 -0.2089
 3946UDC     C843403   8.996   9.832  16.472  0.4874  0.4959  0.6187
 3946UDC     C943404   9.089   9.752  16.374  0.9061 -0.8190  0.7278
 3946UDC    C1043405   9.008   9.673  16.271  0.3176  0.4376  0.0055
 3946UDC    C1143406   9.092   9.559  16.204 -0.3015  0.2424  0.0684
 3947UDC     C143407   4.649  16.137   0.128  0.1916 -1.1469 -0.8141
 3947UDC     C243408   4.753  16.030   0.166 -0.3759  0.8483  0.1698
 3947UDC     C343409   4.708  15.955   0.294  0.2083  0.5016  0.4189
 3947UDC     C443410   4.643  16.046   0.399  0.0711 -0.6413 -1.0988
 3947UDC     C543411   4.657  15.997   0.550  0.4422 -0.8757 -1.2568
 3947UDC     C643412   4.733  16.069   0.663 -0.4247 -1.1985  0.4503
 3947UDC     C743413   4.891  16.042   0.662  0.8173  0.1516 -0.4381
 3947UDC     C843414   4.947  16.102   0.533  0.4721 -1.3310  0.8212
 3947UDC     C943415   4.948  16.253   0.527 -0.0735  0.7000  1.1634
 3947UDC    C1043416   4.909  16.299   0.386 -0.1809  0.7377 -0.6237
 3947UDC    C1143417   4.887  16.451   0.375 -0.4193  0.0371  0.7298
 3948UDC     C143418  13.792   5.127  17.997  1.3399  0.0155  0.7471
 3948UDC     C243419  13.927   5.067  18.038  0.6083  0.1858  0.6793
 3948UDC     C343420  13.994   4.955  17.960  0.9114  0.4760 -0.2442
 3948UDC     C443421  14.141   4.934  17.991  0.4246 -0.9895  0.2605
 3948UDC     C543422  14.170   4.791  17.961  0.4807 -0.5732 -0.6361
 3948UDC     C643423  14.315   4.745  17.984 -1.0081  0.7738  0.4227
 3948UDC     C743424  14.430   4.792  17.887 -0.3717  0.1569 -0.6926
 3948UDC     C843425  14.384   4.765  17.746 -0.1877  0.2636  0.8880
 3948UDC     C943426  14.467   4.849  17.637  0.3769 -0.0644 -0.7431
 3948UDC    C1043427  14.619   4.838  17.626 -0.9350  0.3754 -0.1269
 3948UDC    C1143428  14.680   4.923  17.511 -0.1759  0.1053 -0.3014
 3949UDC     C143429  12.646  14.882  10.919  0.5799 -0.6604 -0.3369
 3949UDC     C243430  12.782  14.816  10.947 -0.0312 -1.5111  0.0532
 3949UDC     C343431  12.811  14.671  10.885  1.0924 -0.2752 -0.4343
 3949UDC     C443432  12.956  14.642  10.874  0.6686  0.3608  0.2289
 3949UDC     C543433  13.028  14.756  10.804  0.3070  0.8057 -0.4105
 3949UDC     C643434  13.178  14.715  10.809 -0.3700  0.1322  0.6503
 3949UDC     C743435  13.249  14.808  10.699  0.1879 -0.1982 -0.0635
 3949UDC     C843436  13.192  14.949  10.691 -0.0200  0.4756  0.3281
 3949UDC     C943437  13.285  15.056  10.627 -0.3876 -0.5005  0.3867
 3949UDC    C1043438  13.249  15.200  10.604  0.8670 -0.8763 -0.0363
 3949UDC    C1143439  13.257  15.314  10.713  0.5610  0.1268  0.1845
 3950UDC     C143440   0.267  12.432   1.008 -1.1968 -0.1877  0.1350
 3950UDC     C243441   0.136  12.393   1.076 -0.4678 -0.2132 -0.2858
 3950UDC     C343442   0.084  12.250   1.069  0.7491 -1.0187  0.1108
 3950UDC     C443443  -0.062  12.245   1.113 -0.0734 -0.6747 -0.3187
 3950UDC     C543444  -0.087  12.158   1.238  0.7083 -0.0091 -1.2411
 3950UDC     C643445  -0.022  12.013   1.221 -0.3060  0.5229 -0.9172
 3950UDC     C743446  -0.104  11.884   1.268  1.3579  0.4216 -0.2568
 3950UDC     C843447  -0.043  11.750   1.225  0.0723 -0.4905  0.5326
 3950UDC     C943448  -0.126  11.635   1.279  0.0589 -0.3649  0.0705
 3950UDC    C1043449  -0.100  11.490   1.210  0.8407 -1.2696  0.0063
 3950UDC    C1143450   0.045  11.456   1.203  0.6243  0.5434  0.1755
 3951UDC     C143451   4.761   5.817   9.663 -0.1661 -0.8894  0.1638
 3951UDC     C243452   4.807   5.963   9.677  0.0711  0.5586  0.1678
 3951UDC     C343453   4.898   5.978   9.796  0.2769  0.0708 -0.0183
 3951UDC     C443454   4.961   6.118   9.819  0.1350 -0.0288 -0.1299
 3951UDC     C543455   5.034   6.130   9.955 -0.5488 -0.3332 -0.6346
 3951UDC     C643456   4.957   6.195  10.076  0.9902  0.5547  0.5395
 3951UDC     C743457   5.019   6.194  10.213  0.2496 -0.3547  1.2739
 3951UDC     C843458   5.099   6.063  10.235  0.2772  0.3221 -0.7742
 3951UDC     C943459   5.097   6.026  10.385 -0.3820 -0.1276  0.2674
 3951UDC    C1043460   4.984   5.937  10.438  0.6356  1.3485  0.1852
 3951UDC    C1143461   4.989   5.793  10.379  0.0023 -0.8091  0.8950
 3952UDC     C143462   0.450  19.278  19.354 -1.0577 -0.6279 -1.3029
 3952UDC     C243463   0.596  19.265  19.312  0.0930 -1.0481 -0.6640
 3952UDC     C343464   0.652  19.123  19.307 -0.3121  0.5852 -0.2684
 3952UDC     C443465   0.619  19.043  19.174  0.0828 -0.0999 -0.3325
 3952UDC     C543466   0.647  19.128  19.051 -0.7067 -0.6373 -0.4897
 3952UDC     C643467   0.787  19.140  18.990  0.5266  0.4847 -0.7787
 3952UDC     C743468   0.799  19.207  18.851 -1.1904 -0.8832  0.5411
 3952UDC     C843469   0.697  19.142  18.760  1.2146  0.2104  0.2347
 3952UDC     C943470   0.691  19.187  18.610  1.2486  1.1445  0.4286
 3952UDC    C1043471   0.799  19.129  18.521 -0.5347 -0.2312 -0.1564
 3952UDC    C1143472   0.836  19.182  18.383 -0.2047  0.7022  0.6039
 3953UDC     C143473   9.793  11.760  12.481  0.7389  0.4226  0.4614
 3953UDC     C243474   9.818  11.696  12.622  0.6588 -0.2331 -0.8571
 3953UDC     C343475   9.965  11.632  12.638  0.0003  0.3496 -0.4691
 3953UDC     C443476  10.019  11.570  12.764 -0.2273 -0.2141  0.2853
 3953UDC     C543477  10.125  11.458  12.754 -0.4150  0.0483 -0.1660
 3953UDC     C643478  10.120  11.371  12.883 -0.6157  0.8146 -0.8104
 3953UDC     C743479  10.227  11.260  12.865  0.5765  0.7717 -0.4687
 3953UDC     C843480  10.372  11.305  12.844  0.1469  0.2537 -0.3070
 3953UDC     C943481  10.470  11.191  12.800 -0.3406  1.5378  0.3611
 3953UDC    C1043482  10.607  11.244  12.773 -0.7723 -0.1384  0.4878
 3953UDC    C1143483  10.658  11.349  12.878  0.1101 -0.0946 -0.3371
 3954UDC     C143484   2.228  14.746  17.213 -0.5088 -0.4359 -0.2784
 3954UDC     C243485   2.270  14.853  17.113  0.9779  0.7766  0.0109
 3954UDC     C343486   2.306  14.975  17.194  0.7184  1.1141 -0.4914
 3954UDC     C443487   2.318  15.099  17.114  0.2585  0.4122  0.6653
 3954UDC     C543488   2.190  15.168  17.058  0.2263  0.3516  0.6321
 3954UDC     C643489   2.199  15.325  17.056  1.1883  0.1687  0.7114
 3954UDC     C743490   2.322  15.362  16.969 -0.3920  1.1997 -0.1258
 3954UDC     C843491   2.315  15.500  16.912  0.0576 -0.7154  0.2169
 3954UDC     C943492   2.200  15.557  16.818 -0.2338 -0.3549 -1.0803
 3954UDC    C1043493   2.218  15.702  16.770  0.7537 -0.2247 -0.7755
 3954UDC    C1143494   2.365  15.724  16.730 -0.6486 -0.6785 -0.2927
 3955UDC     C143495  19.174   8.916   8.509 -0.4842 -0.9491 -0.0288
 3955UDC     C243496  19.191   8.971   8.365 -0.7615  0.4282  0.4952
 3955UDC     C343497  19.304   9.071   8.338  0.2143  1.0202 -0.5707
 3955UDC     C443498  19.267   9.202   8.273  0.7665 -0.3065 -0.1177
 3955UDC     C543499  19.358   9.313   8.326  0.4047  0.5608 -0.5744
 3955UDC     C643500  19.480   9.362   8.244  0.3071  0.7112  0.8179
 3955UDC     C743501  19.609   9.357   8.327  0.0872 -1.3632 -0.3011
 3955UDC     C843502  19.723   9.460   8.306 -0.9664  0.9507  0.9176
 3955UDC     C943503  19.785   9.456   8.161  0.3140  1.1343 -0.8575
 3955UDC    C1043504  19.820   9.308   8.145  0.4506 -0.6329  0.3808
 3955UDC    C1143505  19.871   9.276   8.008 -0.3029  0.3741  0.5184
 3956UDC     C143506  16.304  11.188  10.547  0.0926 -0.8498 -0.4896
 3956UDC     C243507  16.426  11.198  10.637  0.5718  0.0352  0.1351
 3956UDC     C343508  16.452  11.097  10.756  0.6598 -0.4727  0.0891
 3956UDC     C443509  16.321  11.062  10.825 -0.8268 -1.3219 -0.9019
 3956UDC     C543510  16.282  11.180  10.917 -0.1902  1.0375 -0.7798
 3956UDC     C643511  16.132  11.204  10.968  0.0102  0.6365  0.3020
 3956UDC     C743512  16.092  11.094  11.071  1.6027  0.5201  0.5433
 3956UDC     C843513  15.941  11.091  11.097  0.6489 -0.5894 -1.0390
 3956UDC     C943514  15.854  11.025  10.990 -0.3766  0.2132  0.9857
 3956UDC    C1043515  15.700  10.995  11.010 -0.1950  0.0525 -0.4172
 3956UDC    C1143516  15.595  11.110  11.011  0.1334  0.6009 -0.4936
 3957UDC     C143517  16.054   0.533  15.009  0.0613 -0.5281 -0.0856
 3957UDC     C243518  16.038   0.654  14.907  0.4991 -0.5203  0.0789
 3957UDC     C343519  16.095   0.791  14.949 -0.1771 -1.1710  0.1405
 3957UDC     C443520  16.062   0.910  14.858 -0.2195 -0.6644  0.1082
 3957UDC     C543521  16.088   1.048  14.927 -1.7841  1.2680  0.3101
 3957UDC     C643522  16.091   1.175  14.841  0.3568 -0.4237  0.5042
 3957UDC     C743523  16.180   1.282  14.893 -0.2490  0.1469 -0.3452
 3957UDC     C843524  16.337   1.241  14.904  0.6345  0.2398  0.2494
 3957UDC     C943525  16.430   1.366  14.887  0.2889  1.1771 -0.5078
 3957UDC    C1043526  16.416   1.479  14.983  0.1971 -0.5207  0.4211
 3957UDC    C1143527  16.393   1.432  15.132  0.4387  1.4082  0.3798
 3958UDC     C143528   6.427  16.799  13.114  0.2150  0.4497 -0.0692
 3958UDC     C243529   6.385  16.819  13.261 -0.2364 -0.5287  0.5188
 3958UDC     C343530   6.264  16.909  13.300  1.0012  1.1364 -0.4484
 3958UDC     C443531   6.246  16.967  13.441  0.3464 -0.0715  0.2554
 3958UDC     C543532   6.118  17.053  13.457 -0.9172  0.5156  0.2590
 3958UDC     C643533   6.076  17.121  13.587  0.4043 -1.0217 -0.2147
 3958UDC     C743534   5.940  17.200  13.579 -0.0702 -0.6989  0.9713
 3958UDC     C843535   5.826  17.098  13.588 -0.2988  1.2981  0.1883
 3958UDC     C943536   5.687  17.160  13.566  0.3145 -1.4762  0.5160
 3958UDC    C1043537   5.568  17.064  13.550  0.1759 -0.3244 -0.4326
 3958UDC    C1143538   5.452  17.118  13.464 -0.2751 -1.4419 -0.0059
 3959UDC     C143539  19.950  17.131  16.304  0.1643 -0.8439 -0.3223
 3959UDC     C243540  19.999  17.016  16.219  0.1594  0.1139 -1.2773
 3959UDC     C343541  19.900  16.929  16.140  0.4402  0.8623 -0.3487
 3959UDC     C443542  19.958  16.813  16.042 -0.3943  0.8634  0.0928
 3959UDC     C543543  20.110  16.771  16.068  0.1890  0.5390 -0.0233
 3959UDC     C643544  20.137  16.663  15.962 -0.0066  0.1531 -1.5016
 3959UDC     C743545  20.126  16.692  15.821  0.5682 -1.0578  0.6114
 3959UDC     C843546  20.168  16.571  15.735  0.4308  0.9547  0.0179
 3959UDC     C943547  20.321  16.547  15.757 -0.3841  0.3222  0.4524
 3959UDC    C1043548  20.382  16.408  15.707  0.1784 -0.4103  0.2961
 3959UDC    C1143549  20.466  16.395  15.583 -0.5332 -0.6084  1.3771
 3960UDC     C143550   1.141   8.317  10.885 -1.3149  0.1040 -0.5041
 3960UDC     C243551   1.143   8.397  11.020 -1.5182  0.3588  0.5108
 3960UDC     C343552   1.270   8.388  11.106 -0.5068  1.1730 -0.7031
 3960UDC     C443553   1.255   8.261  11.195  0.3869  0.5329  0.7718
 3960UDC     C543554   1.381   8.238  11.293 -0.4379 -0.7315  0.0520
 3960UDC     C643555   1.405   8.100  11.350 -0.3118  0.3976 -0.9992
 3960UDC     C743556   1.309   8.078  11.464 -1.3064  0.4002 -0.1877
 3960UDC     C843557   1.388   8.012  11.572  0.3912  0.3194  0.3062
 3960UDC     C943558   1.477   8.109  11.654  0.1247  0.5225 -0.4040
 3960UDC    C1043559   1.501   8.038  11.778 -0.9796 -0.0753 -0.0139
 3960UDC    C1143560   1.611   8.101  11.862  0.8082 -0.5611  0.0827
 3961UDC     C143561   4.581  15.814   3.297 -1.9902 -0.6893 -0.7421
 3961UDC     C243562   4.505  15.938   3.246 -0.5041  0.1739  1.2651
 3961UDC     C343563   4.355  15.946   3.292 -0.3850 -0.6555  0.2182
 3961UDC     C443564   4.276  15.832   3.352  0.1297  0.3809  0.4295
 3961UDC     C543565   4.190  15.854   3.480 -1.3124  0.1499  0.2007
 3961UDC     C643566   4.068  15.937   3.492  0.7435  0.3766  0.2067
 3961UDC     C743567   4.072  16.057   3.589  0.1085 -0.3421  0.1085
 3961UDC     C843568   4.030  16.027   3.735 -0.9163  1.4039  0.4609
 3961UDC     C943569   3.896  15.959   3.737  0.0241 -0.0961 -0.8136
 3961UDC    C1043570   3.808  15.963   3.861 -0.3263 -0.9093  0.0094
 3961UDC    C1143571   3.900  15.968   3.981  0.5831 -0.6208 -0.2591
 3962UDC     C143572  15.405   1.217   7.729 -0.1925  1.0680  0.2987
 3962UDC     C243573  15.359   1.360   7.702 -0.0298  0.4283 -0.6645
 3962UDC     C343574  15.225   1.397   7.642 -0.2004  0.9512 -0.5203
 3962UDC     C443575  15.215   1.534   7.593  0.2588  0.6589  0.5317
 3962UDC     C543576  15.256   1.639   7.703 -0.1826 -0.8962 -0.5604
 3962UDC     C643577  15.151   1.749   7.678  0.2675 -0.0197 -0.7047
 3962UDC     C743578  15.154   1.816   7.538 -0.2298  0.3924 -0.1043
 3962UDC     C843579  15.034   1.906   7.506 -0.0257  0.3172 -0.3910
 3962UDC     C943580  15.013   1.997   7.379  0.2416 -0.4208 -0.0629
 3962UDC    C1043581  14.959   1.914   7.264 -0.2787  0.1304  0.5421
 3962UDC    C1143582  15.064   1.822   7.195 -0.1132 -0.1715  0.2025
 3963UDC     C143583  11.265  16.771  17.616  0.3270 -0.3830 -1.1546
 3963UDC     C243584  11.217  16.857  17.739  1.2779 -0.1576 -0.2726
 3963UDC     C343585  11.338  16.899  17.825 -0.4116  1.0613  0.6676
 3963UDC     C443586  11.441  16.785  17.859  0.7237  0.2352  0.3742
 3963UDC     C543587  11.571  16.828  17.932 -0.5577 -0.4355 -0.4916
 3963UDC     C643588  11.579  16.827  18.088  0.7259  0.0344  0.3636
 3963UDC     C743589  11.626  16.702  18.171 -1.1407  0.9192  0.2243
 3963UDC     C843590  11.776  16.655  18.141  0.5558  0.2395 -0.4288
 3963UDC     C943591  11.875  16.764  18.179 -0.4288  0.9291  0.2969
 3963UDC    C1043592  12.016  16.757  18.116  1.0538  0.3564 -0.0680
 3963UDC    C1143593  12.077  16.894  18.119  0.2729 -0.1980 -0.3427
 3964UDC     C143594  13.566   6.059   8.280 -0.1643 -1.3146  0.6189
 3964UDC     C243595  13.599   6.022   8.129 -0.0754 -1.1331 -0.6372
 3964UDC     C343596  13.653   6.146   8.055  0.7426  0.6584  1.0619
 3964UDC     C443597  13.642   6.144   7.903  0.1968 -0.5762 -0.3674
 3964UDC     C543598  13.732   6.060   7.811 -0.2561 -0.1866 -0.4226
 3964UDC     C643599  13.883   6.104   7.806 -1.2580  0.1147 -0.9650
 3964UDC     C743600  13.959   6.042   7.928 -0.9092  0.2414 -0.3563
 3964UDC     C843601  14.110   6.038   7.916  0.4469  1.1407 -0.1335
 3964UDC     C943602  14.154   5.983   8.050 -0.0404 -0.4947 -0.0751
 3964UDC    C1043603  14.286   6.046   8.101  0.3680 -0.4297  0.2208
 3964UDC    C1143604  14.301   6.020   8.248  0.5332 -0.1670 -0.9117
 3965UDC     C143605  15.739  16.649  13.775  0.1293 -0.6284  1.4670
 3965UDC     C243606  15.690  16.636  13.921  0.1972  0.1800 -0.0402
 3965UDC     C343607  15.795  16.561  14.003  0.9762  0.0414 -0.6142
 3965UDC     C443608  15.748  16.559  14.150  1.0029  0.3395 -0.1043
 3965UDC     C543609  15.762  16.703  14.205  1.2478  0.7023  0.0627
 3965UDC     C643610  15.733  16.730  14.357 -0.1996  0.1811  0.1531
 3965UDC     C743611  15.582  16.724  14.395 -0.2181 -0.4358  1.2824
 3965UDC     C843612  15.532  16.694  14.529  0.4409  0.2199 -0.3135
 3965UDC     C943613  15.379  16.701  14.539  0.6900  0.7383 -0.1346
 3965UDC    C1043614  15.326  16.835  14.577  0.1235 -0.1014 -0.3598
 3965UDC    C1143615  15.184  16.819  14.608  1.1124 -0.9661  0.0295
 3966UDC     C143616   8.092   3.799  12.242 -0.0184  0.4377  1.2287
 3966UDC     C243617   8.188   3.848  12.359 -0.2273  0.0676 -0.5010
 3966UDC     C343618   8.328   3.908  12.333 -1.0596 -0.6393 -0.2417
 3966UDC     C443619   8.325   4.027  12.232  1.1095 -0.3657  0.9571
 3966UDC     C543620   8.446   4.076  12.158 -0.2918 -0.6883 -0.1849
 3966UDC     C643621   8.413   4.211  12.099 -0.0981 -0.0308  0.9780
 3966UDC     C743622   8.427   4.327  12.199  0.1445 -0.2466 -0.6384
 3966UDC     C843623   8.383   4.467  12.149 -0.9941 -1.1277  1.1005
 3966UDC     C943624   8.290   4.542  12.248  0.4206  1.1277  0.5335
 3966UDC    C1043625   8.169   4.449  12.273 -0.1824  1.1261 -0.6383
 3966UDC    C1143626   8.080   4.404  12.152 -0.8758  0.8671  0.5022
 3967UDC     C143627  11.148   1.342   3.226 -0.5575 -0.3649 -1.4861
 3967UDC     C243628  11.184   1.214   3.297  0.5053 -0.3259  0.4899
 3967UDC     C343629  11.132   1.090   3.207 -0.1358 -0.5208  0.2950
 3967UDC     C443630  10.990   1.040   3.233  0.3650  0.0703 -0.6425
 3967UDC     C543631  10.986   0.990   3.379  0.0902 -0.5079  0.6337
 3967UDC     C643632  10.833   0.980   3.421  0.2298  0.2444 -0.1351
 3967UDC     C743633  10.758   1.110   3.404  0.4695  0.4323  1.2910
 3967UDC     C843634  10.770   1.233   3.500 -0.8746  0.1154 -0.3175
 3967UDC     C943635  10.801   1.190   3.644  0.6757  0.6382 -0.8481
 3967UDC    C1043636  10.718   1.103   3.735  0.0589 -0.3041  0.7961
 3967UDC    C1143637  10.820   1.020   3.818  0.1014  0.2952  1.5721
 3968UDC     C143638   3.256   3.634  12.720  0.0983  1.1455  0.2015
 3968UDC     C243639   3.387   3.685  12.798  0.5505 -0.1669  1.5139
 3968UDC     C343640   3.506   3.680  12.704  0.7365  0.0664  0.4478
 3968UDC     C443641   3.633   3.750  12.764  0.3577  0.1027 -0.0459
 3968UDC     C543642   3.762   3.735  12.679 -0.1067 -0.4664  0.9065
 3968UDC     C643643   3.878   3.839  12.714  0.3337  0.3282  0.3982
 3968UDC     C743644   3.861   3.978  12.649 -0.4978 -0.0402  0.2149
 3968UDC     C843645   3.976   4.076  12.696 -0.1106 -0.7830  0.6072
 3968UDC     C943646   3.923   4.219  12.718  0.6233 -0.3769 -0.6374
 3968UDC    C1043647   3.922   4.327  12.609  0.5466 -0.7506 -0.3581
 3968UDC    C1143648   3.779   4.340  12.553 -0.4660 -0.0481 -0.5451
 3969UDC     C143649   2.767  17.029  12.127 -0.5326  0.4885  0.2278
 3969UDC     C243650   2.856  17.041  12.250 -0.5441  0.1389  0.2662
 3969UDC     C343651   2.982  16.951  12.256  0.3258  1.3047 -0.3674
 3969UDC     C443652   3.005  16.923  12.413 -0.5976 -0.3620  0.0631
 3969UDC     C543653   3.068  17.047  12.478 -0.0800 -0.7791 -0.4751
 3969UDC     C643654   3.209  17.093  12.433 -0.1642  0.0181 -0.1935
 3969UDC     C743655   3.252  17.204  12.534 -1.0338  0.6684  1.0843
 3969UDC     C843656   3.366  17.284  12.478 -0.7875  0.3955  0.6239
 3969UDC     C943657   3.410  17.418  12.538 -0.7128  0.1823 -0.3419
 3969UDC    C1043658   3.557  17.463  12.528  0.0036 -1.3894  0.2023
 3969UDC    C1143659   3.579  17.594  12.619 -0.1502  0.2207  0.7148
 3970UDC     C143660   7.659   9.450  10.621 -0.4626  0.0173 -0.0509
 3970UDC     C243661   7.806   9.493  10.601 -0.9373  0.6828 -0.4416
 3970UDC     C343662   7.922   9.436  10.694  0.3033  0.1706  0.3704
 3970UDC     C443663   7.972   9.298  10.646  0.6953 -0.4578  0.1421
 3970UDC     C543664   8.096   9.250  10.713  0.5217  1.4531  0.0402
 3970UDC     C643665   8.158   9.119  10.654 -0.4104 -0.4941 -0.5938
 3970UDC     C743666   8.217   9.117  10.514 -0.2351  0.1530  0.8051
 3970UDC     C843667   8.291   8.987  10.473 -0.6653 -0.1351  0.1300
 3970UDC     C943668   8.438   9.001  10.520 -0.0078 -0.0192  0.1228
 3970UDC    C1043669   8.515   8.875  10.477  0.1812  0.0991  0.3779
 3970UDC    C1143670   8.667   8.898  10.479 -0.8164 -0.5564  0.2378
 3971UDC     C143671   2.661   4.673  16.330 -0.7792 -0.3384  0.2224
 3971UDC     C243672   2.688   4.791  16.420  0.9102  0.6312 -0.2727
 3971UDC     C343673   2.567   4.868  16.462 -0.1518  0.7361  0.6413
 3971UDC     C443674   2.597   5.010  16.480  0.9761  1.5930  0.0792
 3971UDC     C543675   2.475   5.098  16.523  0.3048  0.4175 -0.4292
 3971UDC     C643676   2.537   5.239  16.562  0.5176 -0.8586  0.2726
 3971UDC     C743677   2.539   5.277  16.711  0.0838  0.6867  0.1613
 3971UDC     C843678   2.635   5.200  16.814  0.0428  0.9714  1.7447
 3971UDC     C943679   2.564   5.088  16.898 -1.2921 -0.2776 -0.4544
 3971UDC    C1043680   2.595   5.102  17.045  0.1700  0.3689  0.1476
 3971UDC    C1143681   2.484   5.024  17.123  0.9521 -0.2267 -0.3039
 3972UDC     C143682   5.790  16.439  16.583 -0.0821 -0.9625 -0.3501
 3972UDC     C243683   5.890  16.338  16.644  0.3108  0.9286 -0.1843
 3972UDC     C343684   5.886  16.194  16.586  0.9898 -0.1265 -0.5951
 3972UDC     C443685   5.985  16.159  16.479 -0.2227  0.0749  0.1195
 3972UDC     C543686   5.960  16.010  16.437 -0.5565 -0.1498 -0.7372
 3972UDC     C643687   5.823  15.971  16.379  0.1473 -1.0439  0.2556
 3972UDC     C743688   5.810  15.838  16.304  0.1870 -0.0563 -0.6632
 3972UDC     C843689   5.787  15.726  16.399 -0.1738 -0.7969 -0.9869
 3972UDC     C943690   5.701  15.770  16.521  0.1979  0.5395 -0.1287
 3972UDC    C1043691   5.563  15.797  16.487  2.1935 -0.1828 -0.7483
 3972UDC    C1143692   5.465  15.672  16.447 -0.5700  0.1210  0.7999
 3973UDC     C143693  19.652   2.812  19.898  0.5063  1.0794 -0.9552
 3973UDC     C243694  19.509   2.816  19.850  0.1610  0.4344  0.3643
 3973UDC     C343695  19.436   2.685  19.809 -0.3872  0.9511  0.1578
 3973UDC     C443696  19.347   2.716  19.689 -0.0308 -0.2371  0.8323
 3973UDC     C543697  19.208   2.658  19.706 -0.2647 -0.3812 -0.3337
 3973UDC     C643698  19.177   2.515  19.742  0.2914  0.3343  0.7187
 3973UDC     C743699  19.208   2.405  19.640  0.2625  0.2437 -0.1242
 3973UDC     C843700  19.166   2.269  19.699  0.9908 -0.4863 -0.1222
 3973UDC     C943701  19.012   2.250  19.739 -0.9004 -0.2617 -0.6827
 3973UDC    C1043702  18.988   2.104  19.772 -0.4420  0.3997 -0.0654
 3973UDC    C1143703  19.016   2.062  19.916  0.9660  0.6257 -0.2093
 3974UDC     C143704  18.850  13.676  11.245  0.1770 -1.0846 -0.6029
 3974UDC     C243705  18.882  13.691  11.093  0.2788  0.1932 -1.3203
 3974UDC     C343706  18.913  13.822  11.028 -0.1886 -0.4623 -0.5354
 3974UDC     C443707  18.950  13.823  10.869 -0.0766  0.5974  0.1847
 3974UDC     C543708  18.832  13.796  10.782 -0.3902  0.0572  0.8790
 3974UDC     C643709  18.878  13.743  10.644 -0.4388  0.3315 -0.0351
 3974UDC     C743710  18.764  13.731  10.537 -0.0102 -0.4398 -0.7239
 3974UDC     C843711  18.809  13.653  10.408 -1.4522  0.2216  0.7263
 3974UDC     C943712  18.898  13.721  10.295 -0.6590  0.1303 -0.1662
 3974UDC    C1043713  19.041  13.703  10.345  0.4303  0.6388  0.5202
 3974UDC    C1143714  19.128  13.769  10.247 -0.2989 -1.2177 -0.0095
 3975UDC     C143715  19.019   7.608  14.231  1.6497 -0.1779  0.3931
 3975UDC     C243716  19.078   7.713  14.334  1.2750 -0.1060  0.9352
 3975UDC     C343717  19.025   7.851  14.289  0.2820  0.1776  0.9695
 3975UDC     C443718  19.061   7.954  14.403 -0.6491  0.0720 -0.0996
 3975UDC     C543719  19.204   8.004  14.397 -0.1552 -0.4222 -0.4592
 3975UDC     C643720  19.291   7.969  14.277 -0.3219  0.5113 -0.6883
 3975UDC     C743721  19.430   8.044  14.278 -0.7221  0.5629 -0.5511
 3975UDC     C843722  19.507   8.030  14.410  0.6987  0.2432  0.0030
 3975UDC     C943723  19.521   7.871  14.439  0.2916 -0.0530 -0.0235
 3975UDC    C1043724  19.660   7.856  14.508 -0.4393 -0.1136  0.7242
 3975UDC    C1143725  19.664   7.917  14.649  0.1844  0.8875  0.4583
 3976UDC     C143726  19.104  12.885   4.135  0.0229  0.6760  0.5854
 3976UDC     C243727  18.975  12.958   4.091  0.0498 -0.9969  0.2329
 3976UDC     C343728  18.857  12.898   4.166  0.3897 -0.2224 -0.8551
 3976UDC     C443729  18.721  12.936   4.102 -0.0289  0.5902 -0.2940
 3976UDC     C543730  18.599  12.928   4.192 -1.0215 -0.1204 -0.0910
 3976UDC     C643731  18.505  13.045   4.170  0.3338  0.0182  0.1878
 3976UDC     C743732  18.401  13.047   4.056 -0.0672  0.6403  0.4139
 3976UDC     C843733  18.257  13.106   4.096 -1.2382 -0.5575  0.1972
 3976UDC     C943734  18.164  13.004   4.155 -0.6850 -0.0120  1.1338
 3976UDC    C1043735  18.021  13.047   4.146  1.0055  0.0384 -0.6558
 3976UDC    C1143736  17.943  13.065   4.283 -0.2656  0.1795 -0.5291
 3977UDC     C143737  18.906  10.900   9.688 -0.1744 -0.5109  0.3738
 3977UDC     C243738  18.979  10.878   9.820  1.0096 -0.5246 -0.2680
 3977UDC     C343739  18.916  10.757   9.888  0.5414 -0.4850  0.2027
 3977UDC     C443740  18.792  10.697   9.816  0.7566 -0.2809  0.9543
 3977UDC     C543741  18.740  10.556   9.843 -0.5813 -0.4666 -0.7776
 3977UDC     C643742  18.685  10.531   9.983  0.2237 -0.3316 -0.1237
 3977UDC     C743743  18.657  10.386  10.003 -0.2357  0.4979 -1.1713
 3977UDC     C843744  18.554  10.353  10.116 -0.5033 -0.4256  0.7861
 3977UDC     C943745  18.488  10.216  10.112  0.6400  0.3070 -0.4589
 3977UDC    C1043746  18.349  10.195  10.060  0.2251  1.3255  0.5828
 3977UDC    C1143747  18.223  10.271  10.109 -0.3517  0.1515 -0.4546
 3978UDC     C143748  10.858  17.409  13.784  0.3197  1.4146 -0.3582
 3978UDC     C243749  11.009  17.402  13.820 -0.3153 -0.5058 -0.0478
 3978UDC     C343750  11.059  17.545  13.829 -0.0621 -0.2447  0.4916
 3978UDC     C443751  10.961  17.628  13.914  0.0602 -0.2034 -0.2574
 3978UDC     C543752  11.028  17.760  13.956 -0.7027  0.5599  0.4007
 3978UDC     C643753  11.086  17.862  13.849  0.1270  0.7500  1.1124
 3978UDC     C743754  10.996  17.976  13.807  0.1230 -1.3554 -0.1058
 3978UDC     C843755  11.066  18.106  13.755  0.4472  0.1681 -0.0951
 3978UDC     C943756  11.207  18.136  13.808  0.0792  1.0053 -0.1359
 3978UDC    C1043757  11.311  18.240  13.748  0.4772 -0.1723  0.6434
 3978UDC    C1143758  11.451  18.185  13.717  0.0279  0.6538 -0.2240
 3979UDC     C143759   2.072  11.279   2.203 -0.4510  0.3086  0.5046
 3979UDC     C243760   2.210  11.332   2.157  2.3550 -0.8696  0.3909
 3979UDC     C343761   2.305  11.322   2.277 -0.2348 -0.2047  1.2476
 3979UDC     C443762   2.306  11.177   2.320 -0.2484 -0.2858 -0.3212
 3979UDC     C543763   2.373  11.074   2.225  0.1039  0.3510 -0.1653
 3979UDC     C643764   2.519  11.111   2.188  0.5070  0.0864 -0.7196
 3979UDC     C743765   2.619  11.129   2.308  1.3541  1.6427  0.0531
 3979UDC     C843766   2.749  11.191   2.249  0.9837  0.2924  0.2639
 3979UDC     C943767   2.866  11.254   2.330 -0.2378  0.7272  0.0557
 3979UDC    C1043768   2.805  11.367   2.418 -0.1553  0.5519  1.3648
 3979UDC    C1143769   2.896  11.475   2.472 -0.6721  1.1385  0.4384
 3980UDC     C143770   6.177  18.594   0.441  0.5846 -0.2396  0.2803
 3980UDC     C243771   6.302  18.674   0.399  0.4901  0.1412  0.9657
 3980UDC     C343772   6.348  18.764   0.510 -0.9077  0.9461 -0.6567
 3980UDC     C443773   6.484  18.835   0.477  0.2576  0.5322  0.3558
 3980UDC     C543774   6.520  18.937   0.588 -0.5170 -0.1342  0.2948
 3980UDC     C643775   6.663  18.992   0.565  0.2741 -0.2978  0.1828
 3980UDC     C743776   6.696  19.066   0.694  1.0047 -0.3339  0.1608
 3980UDC     C843777   6.837  19.133   0.684  0.6367  0.2918 -0.9952
 3980UDC     C943778   6.959  19.044   0.697  0.0897 -0.0210 -1.2714
 3980UDC    C1043779   7.028  18.966   0.588 -0.9355  0.2962  0.0648
 3980UDC    C1143780   7.120  18.861   0.628 -0.7351  0.6860  0.2314
 3981UDC     C143781  16.433  17.434   0.326  0.2880  0.8339  0.5775
 3981UDC     C243782  16.552  17.499   0.397 -1.2699  0.4003 -0.7385
 3981UDC     C343783  16.503  17.552   0.535 -0.8941  1.1115 -0.5431
 3981UDC     C443784  16.490  17.454   0.648 -0.1240  1.7769 -1.3046
 3981UDC     C543785  16.522  17.497   0.796 -0.8051 -0.8447  0.0223
 3981UDC     C643786  16.507  17.412   0.929 -0.4731 -0.6993  0.4411
 3981UDC     C743787  16.563  17.469   1.057  0.7632 -0.0766 -0.2902
 3981UDC     C843788  16.705  17.527   1.059  0.0394 -0.1169 -0.3119
 3981UDC     C943789  16.800  17.416   1.025 -0.5596 -0.0629 -0.4078
 3981UDC    C1043790  16.941  17.459   1.066 -0.1815 -1.0112 -0.8521
 3981UDC    C1143791  16.991  17.609   1.063  0.2466 -0.1703 -0.2993
 3982UDC     C143792   2.814  13.258  11.700  0.4052 -1.0175  0.7797
 3982UDC     C243793   2.892  13.267  11.567  0.2370  0.0969 -1.6580
 3982UDC     C343794   2.958  13.404  11.548  0.9357  0.4569 -0.3658
 3982UDC     C443795   3.036  13.446  11.676 -0.3981  0.2770 -0.7236
 3982UDC     C543796   3.000  13.594  11.716 -0.2801 -0.1269  0.7912
 3982UDC     C643797   3.093  13.666  11.811  0.6089 -0.5584 -0.2627
 3982UDC     C743798   3.007  13.726  11.917 -0.3398 -0.4553  0.6889
 3982UDC     C843799   3.079  13.731  12.055  0.3996 -0.0328  0.0824
 3982UDC     C943800   3.132  13.870  12.096 -0.2566 -0.3388 -1.1960
 3982UDC    C1043801   3.164  13.882  12.252  0.4792  0.2612  0.1420
 3982UDC    C1143802   3.044  13.894  12.348  0.4550 -1.1287 -0.2670
 3983UDC     C143803  18.591   3.237   3.069  0.5250 -0.5208 -0.7055
 3983UDC     C243804  18.559   3.172   2.934  0.0626 -0.3117 -0.2082
 3983UDC     C343805  18.504   3.269   2.827  0.1210  0.4305 -0.1166
 3983UDC     C443806  18.598   3.265   2.710 -0.5121 -0.3564 -0.0033
 3983UDC     C543807  18.548   3.340   2.584 -0.4038  0.2892 -0.1898
 3983UDC     C643808  18.435   3.259   2.515  1.0031 -1.3067  0.1707
 3983UDC     C743809  18.415   3.297   2.365  0.7287 -1.1761  1.2927
 3983UDC     C843810  18.544   3.306   2.283 -0.9097  0.1571 -0.8724
 3983UDC     C943811  18.534   3.387   2.159 -0.4353 -1.2988  1.3819
 3983UDC    C1043812  18.672   3.437   2.115  1.1337 -0.1002 -0.0701
 3983UDC    C1143813  18.745   3.330   2.037 -0.1299  0.7802 -0.5414
 3984UDC     C143814  13.893   5.770  10.075 -0.1698 -0.4736 -0.7802
 3984UDC     C243815  13.750   5.706  10.107  0.7986 -0.0813  0.5383
 3984UDC     C343816  13.672   5.795  10.198  0.7699  0.5019 -0.2113
 3984UDC     C443817  13.645   5.936  10.148 -0.1547 -0.1133  0.0515
 3984UDC     C543818  13.693   6.055  10.222 -0.4496  0.5933 -0.0998
 3984UDC     C643819  13.691   6.198  10.168  0.0721 -0.1395  0.0976
 3984UDC     C743820  13.555   6.263  10.125  0.2623  1.0012  0.1322
 3984UDC     C843821  13.527   6.416  10.104 -0.1091  1.0830 -0.3877
 3984UDC     C943822  13.544   6.521  10.210 -0.3545  0.5885 -0.4307
 3984UDC    C1043823  13.460   6.649  10.205 -0.4253  0.7182  0.2865
 3984UDC    C1143824  13.544   6.774  10.247 -0.4259  0.8977  0.8585
 3985UDC     C143825  18.768   0.922  11.551  0.6338  0.7592 -0.2557
 3985UDC     C243826  18.738   0.930  11.703 -0.3616  0.4040 -0.3689
 3985UDC     C343827  18.643   0.810  11.746 -0.5620 -0.3474 -0.7242
 3985UDC     C443828  18.719   0.677  11.746 -0.6617  0.0415 -0.9861
 3985UDC     C543829  18.606   0.573  11.802 -0.5599 -0.5274 -0.6465
 3985UDC     C643830  18.617   0.419  11.775 -0.1157 -0.4705  0.0253
 3985UDC     C743831  18.649   0.381  11.631  0.3385  0.6880 -0.4367
 3985UDC     C843832  18.609   0.231  11.592 -0.1846 -1.5833  0.6764
 3985UDC     C943833  18.717   0.154  11.514 -0.2272 -0.1730  0.2294
 3985UDC    C1043834  18.727   0.001  11.486 -0.0654 -0.3823  0.1632
 3985UDC    C1143835  18.770  -0.064  11.618 -0.6914 -0.1026  0.1790
 3986UDC     C143836  18.626   3.116   1.155 -0.1943  0.6403 -0.6579
 3986UDC     C243837  18.759   3.117   1.075  0.8319 -0.8199  0.2617
 3986UDC     C343838  18.844   3.240   1.105 -1.3951 -0.0704  0.6905
 3986UDC     C443839  18.991   3.245   1.053 -0.4738 -1.4217  0.2656
 3986UDC     C543840  19.057   3.106   1.070 -0.4522  0.3423 -0.2639
 3986UDC     C643841  19.103   3.048   0.929  0.2606  0.2569  0.0171
 3986UDC     C743842  19.198   3.157   0.873  0.5607 -0.5271 -0.3565
 3986UDC     C843843  19.337   3.129   0.931  0.1919 -0.4786  1.0405
 3986UDC     C943844  19.450   3.223   0.887 -0.2798  0.3509  0.9175
 3986UDC    C1043845  19.462   3.209   0.735 -0.0994  0.6189 -0.4708
 3986UDC    C1143846  19.543   3.086   0.685  0.6000 -0.2433 -0.0677
 3987UDC     C143847  10.131  14.229  15.939 -0.7065 -0.2105 -0.4273
 3987UDC     C243848  10.130  14.369  16.008 -0.8589 -0.3119  0.0766
 3987UDC     C343849  10.034  14.475  15.957  0.0198  0.4712  0.3834
 3987UDC     C443850   9.911  14.419  15.891  0.2292 -0.7035  0.2996
 3987UDC     C543851   9.814  14.332  15.977 -1.0259  0.1061  0.9940
 3987UDC     C643852   9.768  14.377  16.107  0.2946 -0.7959 -0.1141
 3987UDC     C743853   9.652  14.285  16.155 -0.5624  0.1746  0.5242
 3987UDC     C843854   9.682  14.132  16.163 -0.2180 -0.9838 -0.5379
 3987UDC     C943855   9.607  14.051  16.273  0.0501  0.2933 -0.6725
 3987UDC    C1043856   9.621  14.117  16.420 -0.3049 -0.0317 -0.1506
 3987UDC    C1143857   9.619  14.018  16.540  0.0483 -0.0313 -0.9536
 3988UDC     C143858  13.838   3.527  11.936  0.3555  1.3298 -0.2150
 3988UDC     C243859  13.951   3.603  11.863 -0.1048  0.2178 -0.4546
 3988UDC     C343860  13.928   3.630  11.714  0.4223  0.8395 -0.3445
 3988UDC     C443861  14.055   3.654  11.630  0.5086 -0.4118 -0.2681
 3988UDC     C543862  14.145   3.763  11.691  0.7360 -0.4014 -0.2048
 3988UDC     C643863  14.276   3.790  11.617 -0.2112  0.2604  0.0029
 3988UDC     C743864  14.256   3.849  11.477  0.1469  0.3768  0.2755
 3988UDC     C843865  14.276   3.998  11.499  0.1080  0.7277  0.1297
 3988UDC     C943866  14.251   4.092  11.380 -1.0050 -0.6723  0.4196
 3988UDC    C1043867  14.278   4.241  11.397  0.0930  0.5598 -0.2274
 3988UDC    C1143868  14.221   4.289  11.530 -0.2025 -0.0279 -0.7790
 3989UDC     C143869  11.729   7.708  17.030 -1.6984  0.2519  0.2592
 3989UDC     C243870  11.832   7.786  16.941 -0.4922 -0.6710 -0.2441
 3989UDC     C343871  11.947   7.710  16.876  0.1895  0.2147 -0.0397
 3989UDC     C443872  12.066   7.791  16.820 -0.0536  0.4866 -0.8301
 3989UDC     C543873  12.001   7.895  16.731 -0.2210 -0.8148  0.0190
 3989UDC     C643874  12.108   7.980  16.659 -0.2558  0.1436 -0.0875
 3989UDC     C743875  12.191   8.075  16.751 -0.0658 -0.6528  0.2926
 3989UDC     C843876  12.144   8.220  16.776  0.6163  0.8324  0.4020
 3989UDC     C943877  12.266   8.279  16.857 -0.2282 -0.7822  0.5649
 3989UDC    C1043878  12.233   8.378  16.970 -0.7137  0.2963 -1.0719
 3989UDC    C1143879  12.211   8.526  16.940 -0.3285  0.0291 -0.7437
 3990UDC     C143880  12.917   9.575  19.593  0.5811 -0.2107  0.8536
 3990UDC     C243881  12.794   9.666  19.580 -0.1438  0.0740  0.0510
 3990UDC     C343882  12.805   9.739  19.444  1.0125 -0.0196 -0.1930
 3990UDC     C443883  12.803   9.651  19.311 -0.3773  0.1947 -0.3807
 3990UDC     C543884  12.819   9.729  19.181  0.3031  0.5234  1.2637
 3990UDC     C643885  12.874   9.647  19.060  0.0290  0.1122 -0.5169
 3990UDC     C743886  12.761   9.554  19.011 -1.2659  0.0168  0.2679
 3990UDC     C843887  12.790   9.458  18.891  0.1027  1.2684  0.2252
 3990UDC     C943888  12.820   9.309  18.939 -1.1580  0.0648 -0.3699
 3990UDC    C1043889  12.810   9.212  18.820  0.3519  0.0165  0.2306
 3990UDC    C1143890  12.894   9.258  18.704 -0.2537  0.9941  0.6643
 3991UDC     C143891   3.148   6.297  18.249 -0.1423 -0.3882 -0.2028
 3991UDC     C243892   3.236   6.240  18.137 -0.1283  0.6802 -0.9284
 3991UDC     C343893   3.145   6.182  18.025  0.4714 -0.6500 -0.3472
 3991UDC     C443894   3.027   6.079  18.033  0.8100  0.6590  1.0019
 3991UDC     C543895   2.892   6.145  18.066  0.3359  0.2566 -0.5536
 3991UDC     C643896   2.772   6.046  18.041  0.8439 -0.2085 -0.6284
 3991UDC     C743897   2.635   6.110  18.047  0.2740 -0.4936  0.5882
 3991UDC     C843898   2.600   6.211  17.940  0.3475 -1.1668 -0.2362
 3991UDC     C943899   2.476   6.171  17.851  0.3411 -0.7383  0.3769
 3991UDC    C1043900   2.416   6.047  17.915  0.0097 -0.0444  0.1438
 3991UDC    C1143901   2.308   6.000  17.825  0.2260  0.8609  0.1914
 3992UDC     C143902  12.968   6.613   1.807  0.4214  0.7945  0.2498
 3992UDC     C243903  12.862   6.585   1.697  0.7148 -1.5011  0.6752
 3992UDC     C343904  12.796   6.708   1.641  0.3682 -0.4414  0.4191
 3992UDC     C443905  12.770   6.824   1.741  0.1509  0.4151  0.1993
 3992UDC     C543906  12.705   6.955   1.697  0.8767 -0.0013  0.2808
 3992UDC     C643907  12.714   7.061   1.805  0.1418 -0.7176 -0.0298
 3992UDC     C743908  12.671   7.206   1.776  0.1074 -0.1015  0.3237
 3992UDC     C843909  12.533   7.239   1.711  0.6352 -0.8172 -0.2991
 3992UDC     C943910  12.487   7.390   1.729 -1.2900  1.0492  0.3721
 3992UDC    C1043911  12.336   7.393   1.697 -0.2478 -0.4351  0.3831
 3992UDC    C1143912  12.255   7.304   1.796 -0.4655  0.6015 -0.3521
 3993UDC     C143913  17.575   4.616  10.478  0.3091  0.2300  0.1641
 3993UDC     C243914  17.492   4.591  10.606 -0.0089  0.8943  0.1631
 3993UDC     C343915  17.371   4.491  10.577  0.5806  0.9269 -0.8607
 3993UDC     C443916  17.256   4.475  10.680 -0.2494 -0.1317  0.4838
 3993UDC     C543917  17.156   4.366  10.664 -1.0777  0.1859 -0.0459
 3993UDC     C643918  17.231   4.239  10.625  0.3516 -0.7613 -0.3179
 3993UDC     C743919  17.190   4.106  10.695  0.2372  0.7478 -1.0591
 3993UDC     C843920  17.261   4.071  10.833 -0.3667 -0.5065 -0.1257
 3993UDC     C943921  17.171   3.972  10.905  0.8837 -0.1003 -1.4742
 3993UDC    C1043922  17.029   4.017  10.955 -0.1892  0.0677  0.7668
 3993UDC    C1143923  16.955   3.907  11.033 -0.2803  0.1913 -0.5021
 3994UDC     C143924  18.649   8.831   9.269  0.2028 -0.2316  0.4675
 3994UDC     C243925  18.628   8.706   9.180  0.2754 -0.9531  0.6379
 3994UDC     C343926  18.766   8.668   9.117  0.0985  0.2528 -0.0947
 3994UDC     C443927  18.858   8.565   9.202  0.3869 -0.0711  0.5714
 3994UDC     C543928  18.953   8.484   9.127 -0.5345  0.1977  0.0036
 3994UDC     C643929  18.892   8.380   9.038  0.7938 -0.8289 -0.4869
 3994UDC     C743930  18.981   8.330   8.917  0.2281 -0.3026 -0.1382
 3994UDC     C843931  19.047   8.437   8.833  0.5422  0.5554 -1.2242
 3994UDC     C943932  18.946   8.510   8.744  0.9414 -0.2717 -0.6226
 3994UDC    C1043933  18.986   8.522   8.596 -0.3284  0.2582 -0.3391
 3994UDC    C1143934  18.901   8.569   8.475  0.1033 -0.9440  0.9993
 3995UDC     C143935   2.982  19.371   1.234 -0.9033  0.9565  0.4544
 3995UDC     C243936   2.951  19.381   1.084 -0.3356 -0.8940  0.6967
 3995UDC     C343937   2.863  19.514   1.075  1.4713  0.0139 -0.1896
 3995UDC     C443938   2.770  19.543   0.959 -0.2062 -0.4057 -0.3029
 3995UDC     C543939   2.692  19.670   0.979  0.6357  0.4545 -0.9157
 3995UDC     C643940   2.573  19.677   1.075 -0.8704 -0.1292  0.7209
 3995UDC     C743941   2.516  19.815   1.119  0.4125  0.4642  0.0687
 3995UDC     C843942   2.377  19.807   1.193 -0.4451 -0.9416 -0.5207
 3995UDC     C943943   2.348  19.954   1.241  0.3894 -0.3213 -0.0794
 3995UDC    C1043944   2.205  19.961   1.301 -1.1509 -0.0103 -0.2467
 3995UDC    C1143945   2.102  20.015   1.198 -1.0948 -0.0184  0.3824
 3996UDC     C143946   3.218   5.139   5.684  0.6234  0.7024 -0.3438
 3996UDC     C243947   3.301   5.002   5.692  1.8868 -0.2162 -0.0541
 3996UDC     C343948   3.450   4.997   5.693  0.3186  0.5916  0.4154
 3996UDC     C443949   3.518   4.864   5.663  0.0150 -0.3080 -1.1118
 3996UDC     C543950   3.663   4.872   5.712  0.2946 -0.8652  0.4160
 3996UDC     C643951   3.746   4.991   5.645  0.2906 -0.0959  0.6761
 3996UDC     C743952   3.857   5.042   5.747  0.1776 -1.1787  0.5075
 3996UDC     C843953   3.942   5.160   5.690 -0.1385  0.6059 -0.6158
 3996UDC     C943954   3.867   5.251   5.602  0.8144  0.0294 -0.0260
 3996UDC    C1043955   3.940   5.366   5.535 -1.5726 -0.5306 -0.6498
 3996UDC    C1143956   3.856   5.482   5.482 -0.2548  0.1524 -0.7463
 3997UDC     C143957   8.153   5.657   0.887 -0.6548  1.3988 -0.3820
 3997UDC     C243958   8.017   5.660   0.957  0.8230  0.4056 -0.0454
 3997UDC     C343959   7.897   5.636   0.868  0.7298 -0.1834 -0.3382
 3997UDC     C443960   7.770   5.594   0.945  0.7435 -0.5009  0.7887
 3997UDC     C543961   7.671   5.517   0.868 -0.6768  0.2659  1.0871
 3997UDC     C643962   7.535   5.500   0.937 -0.1141 -0.8049  0.0532
 3997UDC     C743963   7.447   5.622   0.899 -0.1910 -0.4044 -0.4551
 3997UDC     C843964   7.317   5.636   0.984  0.5171  0.0671 -0.1697
 3997UDC     C943965   7.196   5.573   0.922 -0.7970 -0.6873 -0.1227
 3997UDC    C1043966   7.071   5.618   0.999  0.9443  0.3511  0.2530
 3997UDC    C1143967   7.115   5.669   1.136 -1.0114  0.2680 -0.1677
 3998UDC     C143968   7.110  14.300  13.860  0.4093 -0.0031 -0.5823
 3998UDC     C243969   7.217  14.322  13.959 -0.0563  0.2587 -0.3070
 3998UDC     C343970   7.221  14.460  14.036  0.6449 -0.0901 -0.0768
 3998UDC     C443971   7.267  14.579  13.954  0.4899  0.2259 -0.1850
 3998UDC     C543972   7.264  14.729  13.994  1.0792 -0.6991  0.8937
 3998UDC     C643973   7.295  14.826  13.871 -0.3314  0.4323  0.0023
 3998UDC     C743974   7.166  14.852  13.792  1.3301  0.5642 -0.2236
 3998UDC     C843975   7.171  14.967  13.688 -0.4877  0.6044 -0.0101
 3998UDC     C943976   7.234  14.908  13.561  0.5079 -0.1568  0.4869
 3998UDC    C1043977   7.155  14.810  13.483  0.6759  0.3853  0.3583
 3998UDC    C1143978   7.021  14.865  13.434  0.7157  0.9492  0.8617
 3999UDC     C143979  11.803   7.350  14.492  0.0527 -0.0126 -0.0439
 3999UDC     C243980  11.767   7.496  14.464  0.4492 -0.6688  0.3845
 3999UDC     C343981  11.885   7.564  14.384 -1.0463 -0.4335  0.2017
 3999UDC     C443982  11.810   7.682  14.309 -0.6382 -0.3422 -0.8766
 3999UDC     C543983  11.684   7.620  14.254 -0.2462 -1.1005  0.0539
 3999UDC     C643984  11.595   7.709  14.163  0.1757 -0.2245 -0.7718
 3999UDC     C743985  11.463   7.657  14.095  0.7573 -0.3197  0.3315
 3999UDC     C843986  11.411   7.694  13.957 -1.1613  0.2856 -0.3888
 3999UDC     C943987  11.267   7.645  13.920  0.6608  0.2142  0.3391
 3999UDC    C1043988  11.242   7.493  13.910 -0.9485  0.0702 -0.7127
 3999UDC    C1143989  11.130   7.458  13.809  0.5788 -0.0331  0.1149
 4000UDC     C143990  18.695   7.148   0.875 -0.0312  0.2300 -0.2204
 4000UDC     C243991  18.672   7.186   0.727  0.4275 -0.5270 -0.8774
 4000UDC     C343992  18.805   7.205   0.649 -0.1741 -0.2174 -0.1402
 4000UDC     C443993  18.870   7.325   0.703  0.8496 -0.2204 -1.0390
 4000UDC     C543994  18.983   7.369   0.614 -0.5074  0.2345  0.2837
 4000UDC     C643995  19.073   7.473   0.678  0.9058 -1.3218  0.4263
 4000UDC     C743996  19.041   7.628   0.653 -0.3895 -0.3944 -1.1498
 4000UDC     C843997  19.060   7.674   0.511  0.4559 -0.0646 -0.6160
 4000UDC     C943998  18.986   7.810   0.488 -0.6666  0.2949 -0.1014
 4000UDC    C1043999  19.067   7.940   0.529 -0.5389 -1.0819  0.5931
 4000UDC    C1144000  19.043   8.073   0.451  0.1918 -0.3736  0.7099
 4001UDC     C144001  19.889   0.567   2.361  0.3077 -0.8539 -0.2935
 4001UDC     C244002  19.755   0.514   2.300  1.2133  1.0468  0.7229
 4001UDC     C344003  19.641   0.448   2.394  0.9685 -0.4933  0.5943
 4001UDC     C444004  19.496   0.418   2.341  1.4952  0.1297  0.4580
 4001UDC     C544005  19.384   0.516   2.344 -0.3619  0.1745 -0.3202
 4001UDC     C644006  19.304   0.543   2.473  0.8348 -0.1276 -1.5561
 4001UDC     C744007  19.367   0.627   2.587 -0.2485 -0.1409  0.6254
 4001UDC     C844008  19.272   0.703   2.685 -0.5187  0.1288 -1.1322
 4001UDC     C944009  19.200   0.797   2.597  0.9189  0.2226 -0.4500
 4001UDC    C1044010  19.233   0.944   2.587  0.0807 -0.4945 -0.5254
 4001UDC    C1144011  19.173   1.019   2.476 -0.4497  0.2427 -0.0075
 4002UDC     C144012  12.456  15.486   4.576 -1.6290 -1.0467  0.2800
 4002UDC     C244013  12.430  15.431   4.437  0.0495 -0.3441  0.0411
 4002UDC     C344014  12.411  15.271   4.411 -0.1663 -1.0297  1.1015
 4002UDC     C444015  12.273  15.211   4.380 -0.1030 -0.5684 -0.9341
 4002UDC     C544016  12.212  15.274   4.252 -0.1088  0.4356 -0.2503
 4002UDC     C644017  12.065  15.230   4.233 -0.1717 -0.7280  0.3809
 4002UDC     C744018  11.983  15.284   4.353 -0.2571  0.2194 -0.9135
 4002UDC     C844019  11.830  15.280   4.353 -1.2193 -0.1576 -0.2769
 4002UDC     C944020  11.761  15.307   4.490  0.6291 -0.6283  0.6437
 4002UDC    C1044021  11.783  15.214   4.606 -0.4008 -0.0532  0.3722
 4002UDC    C1144022  11.733  15.268   4.750 -0.3466 -0.6881  0.3410
 4003UDC     C144023  17.104  15.773   3.741 -0.0712 -0.5747  1.0595
 4003UDC     C244024  16.951  15.753   3.720 -0.1375 -0.9408 -0.7885
 4003UDC     C344025  16.866  15.837   3.819 -1.1742  0.1377  0.3962
 4003UDC     C444026  16.738  15.775   3.857  0.8966 -0.1253  0.0220
 4003UDC     C544027  16.619  15.865   3.876 -1.0058 -1.3627 -0.1193
 4003UDC     C644028  16.639  15.948   3.995  0.4225  0.0196  0.1925
 4003UDC     C744029  16.524  16.028   4.046  0.4662  0.8111 -1.0487
 4003UDC     C844030  16.537  16.177   4.018 -0.4522 -0.5245  0.3307
 4003UDC     C944031  16.611  16.246   4.127 -0.2780 -0.6090 -1.4144
 4003UDC    C1044032  16.583  16.396   4.146 -0.3880 -0.7771 -0.2458
 4003UDC    C1144033  16.436  16.437   4.128  0.8586 -0.1960 -0.1074
 4004UDC     C144034  16.696   9.339   9.067  0.7612 -0.4369  0.5777
 4004UDC     C244035  16.791   9.453   9.011 -0.1281  0.1846 -0.2046
 4004UDC     C344036  16.765   9.579   9.096  0.3770  0.4619 -0.4455
 4004UDC     C444037  16.834   9.683   9.004 -0.5334  0.7802 -0.7673
 4004UDC     C544038  16.867   9.821   9.068 -0.2741  0.8131  0.0134
 4004UDC     C644039  16.813   9.831   9.209 -0.2314 -0.1961 -0.4660
 4004UDC     C744040  16.790   9.978   9.257  0.4745  0.3518 -0.3536
 4004UDC     C844041  16.687   9.981   9.376 -0.7515 -0.4142  1.2685
 4004UDC     C944042  16.691  10.115   9.447  0.7770 -0.1467 -0.2945
 4004UDC    C1044043  16.584  10.091   9.555  0.6522 -0.2488  0.4276
 4004UDC    C1144044  16.462  10.188   9.541 -0.4056 -0.3867 -0.1148
 4005UDC     C144045  10.445  11.952   7.932  0.6594 -0.4884  0.0063
 4005UDC     C244046  10.449  11.997   8.086  0.2568 -0.3058  0.3434
 4005UDC     C344047  10.518  11.901   8.177  0.5785  0.1405  0.7133
 4005UDC     C444048  10.675  11.906   8.181  0.7734  0.1461 -0.5695
 4005UDC     C544049  10.729  12.044   8.222 -0.3574  0.0361  0.2185
 4005UDC     C644050  10.873  12.037   8.276 -1.4558 -0.1142 -0.2226
 4005UDC     C744051  10.856  11.978   8.417  1.1714 -0.8460  0.3064
 4005UDC     C844052  10.982  11.998   8.507  0.7789 -1.3207 -0.5187
 4005UDC     C944053  11.108  11.918   8.478  0.2450  0.1750  0.6527
 4005UDC    C1044054  11.246  11.987   8.465  0.3591 -0.2543  1.3965
 4005UDC    C1144055  11.358  11.908   8.393  0.1840  0.1598  0.3552
 4006UDC     C144056  17.897  11.701   5.804  0.9717 -0.3173  0.8000
 4006UDC     C244057  18.046  11.711   5.775  0.0796  0.1654 -0.3168
 4006UDC     C344058  18.061  11.774   5.634 -0.6103  0.3753 -0.6463
 4006UDC     C444059  18.024  11.927   5.645  0.9168 -0.7153 -0.5614
 4006UDC     C544060  18.124  12.013   5.721  1.0586  0.5241 -0.0943
 4006UDC     C644061  18.050  12.149   5.746 -1.0519  1.7553 -0.3324
 4006UDC     C744062  17.961  12.176   5.623 -0.3692  0.3437 -0.8586
 4006UDC     C844063  17.888  12.307   5.658  1.0568  0.0508  0.0650
 4006UDC     C944064  17.760  12.331   5.575  0.7418  0.1435 -0.2321
 4006UDC    C1044065  17.755  12.306   5.416  0.7077  0.3570 -0.0097
 4006UDC    C1144066  17.648  12.396   5.354  1.2706 -0.6841  0.9104
 4007UDC     C144067   0.724  11.875  14.002  0.6306 -0.0447  0.2125
 4007UDC     C244068   0.821  11.804  14.099 -0.4394 -0.2525  0.5527
 4007UDC     C344069   0.741  11.740  14.212 -0.6902 -0.8211 -1.2195
 4007UDC     C444070   0.852  11.683  14.319 -0.6641  0.6888 -0.7496
 4007UDC     C544071   0.967  11.623  14.237 -0.6190 -0.7561  0.2841
 4007UDC     C644072   1.109  11.623  14.298 -0.6469  0.7767 -0.4962
 4007UDC     C744073   1.162  11.760  14.355 -0.8996  0.6736  0.4911
 4007UDC     C844074   1.322  11.769  14.371  0.0628 -0.6774 -0.7005
 4007UDC     C944075   1.383  11.709  14.507  0.5915  0.1532  0.4916
 4007UDC    C1044076   1.526  11.667  14.490  0.6131 -0.3780 -0.4731
 4007UDC    C1144077   1.557  11.582  14.362  0.2590 -0.6469  0.1079
 4008UDC     C144078  15.545  11.740  19.311 -0.2327  0.5738  0.0107
 4008UDC     C244079  15.599  11.609  19.255  0.3300 -0.0472  0.2110
 4008UDC     C344080  15.739  11.567  19.304  0.2700  0.4473 -0.3628
 4008UDC     C444081  15.793  11.432  19.243  0.4455 -0.3479 -0.0852
 4008UDC     C544082  15.712  11.391  19.117  0.1282 -0.0581  0.1629
 4008UDC     C644083  15.802  11.324  19.007  0.4382 -0.5538 -0.3194
 4008UDC     C744084  15.930  11.408  18.970  1.6595 -0.4729  1.2021
 4008UDC     C844085  16.040  11.328  18.898  0.7981  0.1722  0.1196
 4008UDC     C944086  15.978  11.188  18.858  1.2459  0.5971  0.4104
 4008UDC    C1044087  16.029  11.130  18.722  0.7517 -0.8282  1.1298
 4008UDC    C1144088  16.168  11.069  18.714  0.1677  0.8654 -0.3991
 4009UDC     C144089  19.319  17.751   0.105  1.5398  1.8095  0.2930
 4009UDC     C244090  19.264  17.628   0.169 -0.1635 -0.3158  0.0121
 4009UDC     C344091  19.286  17.500   0.093  0.7289 -0.6436  0.1077
 4009UDC     C444092  19.422  17.427   0.101  0.8686 -0.2986  0.1715
 4009UDC     C544093  19.379  17.281   0.091 -0.0796 -1.5892 -0.2206
 4009UDC     C644094  19.323  17.239   0.225  0.3911  0.3880 -0.3133
 4009UDC     C744095  19.199  17.149   0.210  0.1533 -0.6286  0.6349
 4009UDC     C844096  19.230  17.007   0.155 -0.4137 -0.0672 -1.1293
 4009UDC     C944097  19.103  16.922   0.142  1.1820 -0.6735 -0.3644
 4009UDC    C1044098  19.161  16.784   0.104 -0.1426  0.6020  0.1499
 4009UDC    C1144099  19.201  16.700   0.224 -0.1022 -0.4271 -0.1433
 4010UDC     C144100  19.516  11.578  13.663 -1.0242  0.6519  1.1837
 4010UDC     C244101  19.548  11.625  13.518  0.9252 -0.0733 -0.1895
 4010UDC     C344102  19.619  11.766  13.511 -0.6853 -0.1838 -0.1952
 4010UDC     C444103  19.527  11.879  13.571 -1.0896  0.4287 -0.4007
 4010UDC     C544104  19.604  12.012  13.603  0.1750  0.0135 -0.3117
 4010UDC     C644105  19.712  12.025  13.496 -0.0516  0.6919  0.0348
 4010UDC     C744106  19.784  12.149  13.539  0.3005  1.1328 -0.9438
 4010UDC     C844107  19.869  12.243  13.455  0.8243  0.3839 -0.3170
 4010UDC     C944108  19.813  12.271  13.314 -0.1435  0.5049 -0.0015
 4010UDC    C1044109  19.883  12.379  13.224  0.1237  1.9654  0.1349
 4010UDC    C1144110  20.031  12.389  13.228 -0.7811 -1.0755  0.2653
 4011UDC     C144111  17.230   7.757  13.116 -0.7809 -0.5242  0.2078
 4011UDC     C244112  17.102   7.793  13.184  0.5815 -0.2313 -0.3704
 4011UDC     C344113  17.006   7.681  13.234 -2.2056 -0.7110  0.6325
 4011UDC     C444114  16.946   7.716  13.373  0.8268 -0.7644 -0.6967
 4011UDC     C544115  17.056   7.768  13.478 -0.2329 -1.3600  0.4715
 4011UDC     C644116  17.130   7.644  13.538 -0.0333 -0.2300 -0.3860
 4011UDC     C744117  17.279   7.664  13.575  0.6184  0.1259 -0.0380
 4011UDC     C844118  17.336   7.794  13.646  0.0131  0.7563  0.3999
 4011UDC     C944119  17.454   7.786  13.744 -0.4334 -0.6505  0.0912
 4011UDC    C1044120  17.480   7.884  13.859  0.2904  0.2910  0.7768
 4011UDC    C1144121  17.395   7.842  13.982 -0.3304 -0.6505 -0.2759
 4012UDC     C144122  16.098  12.113   7.962  0.0659  0.4871  0.2038
 4012UDC     C244123  16.182  11.988   8.021 -0.1735 -1.3277  0.2836
 4012UDC     C344124  16.328  11.985   7.979 -1.0265 -0.8816 -0.3755
 4012UDC     C444125  16.385  12.080   8.092 -0.8154 -0.1022 -0.5700
 4012UDC     C544126  16.449  12.002   8.208 -1.5225 -1.4108 -0.1231
 4012UDC     C644127  16.471  12.080   8.343  0.7261 -0.8045 -0.5490
 4012UDC     C744128  16.445  11.996   8.471  0.3878 -0.1753  0.3885
 4012UDC     C844129  16.473  12.066   8.604 -0.6933  0.5865 -0.7664
 4012UDC     C944130  16.430  11.997   8.733  0.5055  0.5216 -0.6421
 4012UDC    C1044131  16.490  12.049   8.865 -0.1096  0.2801 -0.1411
 4012UDC    C1144132  16.444  11.964   8.992  0.3653  0.8042 -0.4109
 4013UDC     C144133  18.659  13.288  16.253  0.0436 -0.2878 -0.1180
 4013UDC     C244134  18.687  13.415  16.336  0.0279 -0.2957 -0.3431
 4013UDC     C344135  18.706  13.409  16.489 -0.1856  1.1887 -1.7026
 4013UDC     C444136  18.735  13.539  16.569  0.7067 -0.1636  0.5184
 4013UDC     C544137  18.650  13.560  16.699 -0.2265 -0.5119 -0.5985
 4013UDC     C644138  18.633  13.708  16.740  0.4129 -1.0962 -0.8528
 4013UDC     C744139  18.559  13.721  16.877  0.7159  0.5129 -0.5530
 4013UDC     C844140  18.403  13.741  16.869 -0.8519 -1.0396 -0.0393
 4013UDC     C944141  18.345  13.871  16.926 -0.3775 -0.3183  1.6417
 4013UDC    C1044142  18.195  13.893  16.937  1.0061 -0.5350 -0.6993
 4013UDC    C1144143  18.126  13.793  17.042  0.1337 -1.0257 -0.4277
 4014UDC     C144144  14.750  14.924  11.550 -0.6016  0.5393 -0.5309
 4014UDC     C244145  14.638  14.909  11.652  0.0365  0.6291  0.7515
 4014UDC     C344146  14.551  15.039  11.674 -0.1342  0.8238 -0.5122
 4014UDC     C444147  14.630  15.130  11.765 -0.1355 -0.4792  1.1259
 4014UDC     C544148  14.535  15.227  11.840  0.3825  0.8446  0.1288
 4014UDC     C644149  14.454  15.140  11.935 -0.1099  0.3667 -0.5752
 4014UDC     C744150  14.361  15.217  12.029 -0.2411 -0.3377 -0.0762
 4014UDC     C844151  14.420  15.330  12.116 -0.5979  0.9711  1.0997
 4014UDC     C944152  14.327  15.371  12.235 -0.0279  0.3662 -0.6136
 4014UDC    C1044153  14.311  15.241  12.323 -0.4118  0.2670 -0.0363
 4014UDC    C1144154  14.421  15.210  12.428 -0.6121 -0.4007 -0.1675
 4015UDC     C144155   1.090   0.613   2.032  0.9197  0.1790 -0.3332
 4015UDC     C244156   1.036   0.484   2.088  0.7048  0.4049 -0.7900
 4015UDC     C344157   0.895   0.456   2.038  0.0450  0.6190 -0.1286
 4015UDC     C444158   0.885   0.425   1.880  0.1753 -0.0014 -1.0256
 4015UDC     C544159   0.748   0.384   1.820 -0.1488  0.2962  0.3822
 4015UDC     C644160   0.766   0.369   1.668  0.6376 -0.5795 -0.3855
 4015UDC     C744161   0.666   0.284   1.588  0.8936 -1.1229  0.0959
 4015UDC     C844162   0.698   0.273   1.438 -0.4836 -0.2196  0.5124
 4015UDC     C944163   0.654   0.148   1.365  1.0224  0.2471  0.0011
 4015UDC    C1044164   0.519   0.094   1.398 -0.6550 -0.1866 -0.2953
 4015UDC    C1144165   0.503  -0.053   1.359 -0.3781 -0.1820 -0.2992
 4016UDC     C144166  11.814   8.278  18.090  0.1317  0.2788  0.0510
 4016UDC     C244167  11.821   8.129  18.130 -0.5630 -1.2090 -0.4383
 4016UDC     C344168  11.685   8.069  18.156 -0.0372  0.3275  0.2524
 4016UDC     C444169  11.702   7.915  18.142 -0.5543  0.0046 -0.0872
 4016UDC     C544170  11.760   7.896  18.002  0.2871  0.7832 -0.0957
 4016UDC     C644171  11.822   7.767  17.963  0.2667 -0.5872 -0.9698
 4016UDC     C744172  11.783   7.647  18.044 -0.1209 -0.6550  0.0993
 4016UDC     C844173  11.660   7.580  17.984  0.5645 -1.0873 -0.1254
 4016UDC     C944174  11.619   7.437  18.026 -0.3818  0.0821 -0.6660
 4016UDC    C1044175  11.721   7.327  18.017 -2.0502 -0.1766 -0.4362
 4016UDC    C1144176  11.688   7.204  18.103 -0.3241  0.2417  1.2337
 4017UDC     C144177  10.210   4.190  16.758 -0.1229 -0.2243 -1.0750
 4017UDC     C244178  10.117   4.272  16.684 -0.0865 -0.3118  0.9578
 4017UDC     C344179  10.060   4.401  16.746  0.4136 -0.7285 -1.1996
 4017UDC     C444180   9.940   4.459  16.676  0.4247 -0.4417 -0.2717
 4017UDC     C544181   9.919   4.612  16.693 -0.2671  0.8284 -0.6138
 4017UDC     C644182   9.811   4.690  16.606  0.6637 -0.0803 -0.5338
 4017UDC     C744183   9.676   4.702  16.686 -0.3280 -0.2381 -0.3575
 4017UDC     C844184   9.560   4.772  16.609  0.0350 -0.0244 -1.2711
 4017UDC     C944185   9.498   4.704  16.487 -0.1759 -0.0819  0.9775
 4017UDC    C1044186   9.495   4.550  16.478 -0.3327 -0.3005  0.4854
 4017UDC    C1144187   9.490   4.515  16.324 -0.0033  0.5277 -0.4058
 4018UDC     C144188   9.326  14.498   0.713  0.5620  0.1023  0.7897
 4018UDC     C244189   9.377  14.639   0.687  0.1936 -0.1014  0.2866
 4018UDC     C344190   9.358  14.746   0.803 -0.2227  1.8241 -0.3467
 4018UDC     C444191   9.378  14.887   0.765  0.5543 -0.8152  0.4031
 4018UDC     C544192   9.330  14.986   0.881 -0.8418  0.2388 -0.2986
 4018UDC     C644193   9.254  15.105   0.824 -0.2136 -0.2677 -0.5636
 4018UDC     C744194   9.160  15.056   0.715  0.4210  0.5160 -0.6934
 4018UDC     C844195   9.032  15.138   0.693 -0.6798  0.7239 -0.1441
 4018UDC     C944196   8.929  15.124   0.801  0.0744 -0.1419 -0.5289
 4018UDC    C1044197   8.863  14.992   0.837 -0.1572 -0.2623  0.0170
 4018UDC    C1144198   8.725  14.967   0.783  0.5164  0.0935  0.5153
 4019UDC     C144199  12.563  12.817   2.738  0.8068  1.2070 -0.4336
 4019UDC     C244200  12.688  12.752   2.810  0.4134  0.5256 -0.2156
 4019UDC     C344201  12.747  12.614   2.775 -0.0898 -1.0504 -0.1378
 4019UDC     C444202  12.877  12.607   2.687  0.5351  0.2481  1.1302
 4019UDC     C544203  12.944  12.463   2.697  1.2875 -0.2534  0.3619
 4019UDC     C644204  13.032  12.438   2.573 -0.9092  0.2288 -0.3553
 4019UDC     C744205  13.095  12.298   2.596 -0.2009 -0.0863 -0.2594
 4019UDC     C844206  13.219  12.259   2.513  0.8281  0.3578 -0.6669
 4019UDC     C944207  13.253  12.107   2.501 -0.0511 -0.6751 -0.3424
 4019UDC    C1044208  13.360  12.091   2.394  0.4791  0.5416  0.6737
 4019UDC    C1144209  13.428  11.951   2.391  0.3310 -0.8275 -0.3783
 4020UDC     C144210   0.960   6.497  16.396  0.8797 -0.1614 -0.2830
 4020UDC     C244211   0.877   6.588  16.488  1.1528 -1.3725  0.4588
 4020UDC     C344212   0.781   6.670  16.395  0.4551  0.5399 -0.1406
 4020UDC     C444213   0.679   6.754  16.472 -0.6212  0.4632  0.7092
 4020UDC     C544214   0.611   6.829  16.359 -0.3626 -0.0776  0.2716
 4020UDC     C644215   0.504   6.934  16.396  0.1328 -0.2722  0.4900
 4020UDC     C744216   0.429   6.983  16.273  0.3548  0.8277  0.6492
 4020UDC     C844217   0.279   7.018  16.298 -0.1481  0.4738 -0.7147
 4020UDC     C944218   0.202   7.052  16.168 -0.8529  0.3077 -0.5390
 4020UDC    C1044219   0.137   7.188  16.180 -0.2154 -1.0322 -0.2743
 4020UDC    C1144220   0.023   7.220  16.082  0.0135 -0.2495  0.5781
 4021UDC     C144221   6.028  12.044   2.187 -1.0321  0.5124  0.5716
 4021UDC     C244222   5.979  12.155   2.287  0.0772  0.4775 -0.6093
 4021UDC     C344223   6.089  12.163   2.394 -0.5882 -0.3664  0.1752
 4021UDC     C444224   6.094  12.053   2.506  0.0512 -0.5075 -0.1251
 4021UDC     C544225   5.967  12.040   2.586 -0.5066  0.4781  1.0666
 4021UDC     C644226   5.915  12.172   2.637  0.4129 -0.9127 -0.2604
 4021UDC     C744227   5.774  12.145   2.709 -0.6892  0.0260 -0.2696
 4021UDC     C844228   5.790  12.011   2.783  0.4221 -0.0637 -0.2359
 4021UDC     C944229   5.684  11.985   2.893 -0.1491 -0.4243 -0.5478
 4021UDC    C1044230   5.719  11.863   2.977  0.7663 -0.5477 -0.5603
 4021UDC    C1144231   5.637  11.875   3.111  0.4577 -1.0280  0.7958
 4022UDC     C144232  10.774  14.294   8.219 -0.4423 -0.2116 -0.1386
 4022UDC     C244233  10.705  14.168   8.183  0.5565  1.0519 -0.3187
 4022UDC     C344234  10.567  14.174   8.111 -0.6642  1.1742 -0.5150
 4022UDC     C444235  10.442  14.196   8.198 -1.1230 -0.4805 -0.6904
 4022UDC     C544236  10.325  14.120   8.135 -1.0988  0.1189 -0.2352
 4022UDC     C644237  10.226  14.056   8.238  0.2143 -0.4105  0.1419
 4022UDC     C744238  10.124  14.153   8.308 -0.9792 -0.0408 -0.9698
 4022UDC     C844239  10.180  14.194   8.443  0.6700 -0.3488 -0.9032
 4022UDC     C944240  10.277  14.306   8.453 -0.1991  0.7086 -1.4411
 4022UDC    C1044241  10.200  14.431   8.508  0.9089 -0.1401  0.9771
 4022UDC    C1144242  10.156  14.427   8.651  0.1196 -0.2970 -0.6388
 4023UDC     C144243  13.488   8.377  13.361 -0.7620 -0.8267  0.4751
 4023UDC     C244244  13.338   8.387  13.357  0.4619  0.1200 -0.5496
 4023UDC     C344245  13.272   8.508  13.429  0.9024 -0.1708 -0.3375
 4023UDC     C444246  13.307   8.557  13.569  0.0031 -0.8292 -0.9255
 4023UDC     C544247  13.212   8.669  13.627  0.3285  0.4338  0.5994
 4023UDC     C644248  13.239   8.741  13.755  0.6984 -1.7028 -0.8415
 4023UDC     C744249  13.100   8.796  13.810 -0.8235 -0.0850  0.1253
 4023UDC     C844250  13.129   8.897  13.920 -0.0878  0.7002  0.2617
 4023UDC     C944251  13.170   9.031  13.860 -0.9560 -0.2508 -0.4058
 4023UDC    C1044252  13.152   9.138  13.969 -1.0397  0.5939 -1.1195
 4023UDC    C1144253  13.253   9.245  13.989  0.7911 -0.4987 -0.0730
 4024UDC     C144254   3.798   9.574   3.517 -0.0161 -0.6841 -0.4829
 4024UDC     C244255   3.921   9.625   3.596  0.0802  0.1339 -0.4039
 4024UDC     C344256   4.050   9.563   3.546 -0.5327 -0.0563 -0.1060
 4024UDC     C444257   4.054   9.416   3.512 -0.1883  1.4974  0.1856
 4024UDC     C544258   4.195   9.372   3.485 -0.6186 -0.1103 -0.6791
 4024UDC     C644259   4.280   9.494   3.434 -0.2923 -0.4473 -0.7163
 4024UDC     C744260   4.247   9.530   3.291  0.4691 -0.1642 -0.3198
 4024UDC     C844261   4.324   9.650   3.230 -0.9059  0.6478 -0.1462
 4024UDC     C944262   4.463   9.614   3.179 -0.6742  0.6338  0.2523
 4024UDC    C1044263   4.541   9.721   3.106 -0.6808 -0.7362 -0.3092
 4024UDC    C1144264   4.538   9.858   3.175  1.1644 -0.7178  0.2894
 4025UDC     C144265   2.570   6.356   9.461  0.7459  0.8720 -0.6916
 4025UDC     C244266   2.674   6.282   9.559 -0.3210  0.0940  0.3447
 4025UDC     C344267   2.829   6.296   9.535  0.0612  0.0983  0.9703
 4025UDC     C444268   2.905   6.158   9.535 -0.2190  1.4478 -0.7995
 4025UDC     C544269   3.041   6.195   9.569 -0.0815  0.2161 -0.3431
 4025UDC     C644270   3.092   6.267   9.705 -0.0556 -0.1068  1.0363
 4025UDC     C744271   3.084   6.426   9.697 -0.2682  1.0866 -0.2635
 4025UDC     C844272   3.095   6.501   9.834  0.6237 -1.1167 -0.3359
 4025UDC     C944273   3.026   6.637   9.838  0.1619 -0.1021  0.6960
 4025UDC    C1044274   3.107   6.760   9.788 -0.3320 -0.3495  0.6100
 4025UDC    C1144275   3.034   6.896   9.814 -0.2931  0.1890  0.6233
 4026UDC     C144276  10.236   8.406   3.218 -0.6499  0.8806 -0.6711
 4026UDC     C244277  10.206   8.550   3.264  0.2644  0.2894 -0.8919
 4026UDC     C344278  10.282   8.662   3.195  0.5083  0.3329  0.8326
 4026UDC     C444279  10.247   8.684   3.045  0.7564  0.9801  0.4476
 4026UDC     C544280  10.232   8.811   2.959 -0.3727  0.8631  1.0473
 4026UDC     C644281  10.178   8.788   2.815  0.6710  0.1438 -0.1520
 4026UDC     C744282  10.137   8.924   2.756 -0.5060  0.4665  0.1701
 4026UDC     C844283  10.082   8.957   2.617  0.2545  0.4177  0.8843
 4026UDC     C944284  10.083   9.106   2.593 -0.4050 -0.5831 -0.3075
 4026UDC    C1044285  10.058   9.138   2.439  0.5572  0.1807  0.3083
 4026UDC    C1144286   9.929   9.092   2.366  0.5900 -0.4310 -0.1329
 4027UDC     C144287  13.809  13.662   0.692 -0.3079 -0.4208 -0.8190
 4027UDC     C244288  13.767  13.548   0.792 -0.1402 -0.0249  0.8591
 4027UDC     C344289  13.621  13.524   0.790 -0.4646 -0.7322  0.5475
 4027UDC     C444290  13.587  13.459   0.930 -0.6468  0.1730  0.3497
 4027UDC     C544291  13.436  13.450   0.944 -0.1959 -0.5484  0.3131
 4027UDC     C644292  13.391  13.358   1.054 -0.5433 -0.5896  0.3473
 4027UDC     C744293  13.402  13.211   1.019  0.0555  0.0920  0.4938
 4027UDC     C844294  13.372  13.110   1.135 -0.2100  0.1064 -0.3240
 4027UDC     C944295  13.243  13.088   1.210 -0.5773 -0.5812 -0.3773
 4027UDC    C1044296  13.136  13.078   1.094 -0.6608  0.7682 -0.1093
 4027UDC    C1144297  13.029  12.964   1.107 -0.0814  1.2292 -0.0898
 4028UDC     C144298  13.682   0.508  12.273  0.0679 -0.3543  0.0911
 4028UDC     C244299  13.772   0.628  12.286  0.3905 -0.2306 -0.0016
 4028UDC     C344300  13.821   0.677  12.142  0.4095  1.0943 -0.1642
 4028UDC     C444301  13.910   0.795  12.150 -0.1631 -0.7886  0.5255
 4028UDC     C544302  13.978   0.832  12.018 -0.4217  0.7888  0.7390
 4028UDC     C644303  14.069   0.956  12.014 -1.0639 -0.1251  0.1595
 4028UDC     C744304  14.003   1.084  11.958  0.0236  0.2104 -0.2008
 4028UDC     C844305  14.090   1.148  11.844 -0.4637  0.8206  0.1141
 4028UDC     C944306  14.199   1.223  11.926  0.1794 -0.4421  0.3058
 4028UDC    C1044307  14.233   1.369  11.881 -0.1453 -0.1002 -0.4064
 4028UDC    C1144308  14.328   1.433  11.983  1.0352  0.1808 -0.4649
 4029UDC     C144309  12.378  14.055   1.389 -0.1989  0.0574  1.2385
 4029UDC     C244310  12.291  14.177   1.419 -1.1026 -0.2645  0.2782
 4029UDC     C344311  12.259  14.236   1.277  0.3025 -0.2811 -0.2092
 4029UDC     C444312  12.397  14.273   1.222 -0.6106  0.2693 -0.3252
 4029UDC     C544313  12.417  14.342   1.082  0.1418 -0.6874  0.2750
 4029UDC     C644314  12.356  14.257   0.977  0.4774 -0.5322 -1.7057
 4029UDC     C744315  12.339  14.323   0.844  0.7022 -0.1165  0.4875
 4029UDC     C844316  12.302  14.469   0.851  0.5823 -0.2291  0.8276
 4029UDC     C944317  12.183  14.506   0.767 -0.5359 -0.8216 -0.1954
 4029UDC    C1044318  12.141  14.647   0.781  1.0889  0.8854  0.3876
 4029UDC    C1144319  12.020  14.682   0.685 -0.4527  0.6881  0.3469
 4030UDC     C144320  11.500  10.427   9.584  0.8172  0.5247  0.1700
 4030UDC     C244321  11.530  10.486   9.721  0.6563 -0.4734 -0.3215
 4030UDC     C344322  11.439  10.428   9.833 -0.1858 -0.2608 -0.1895
 4030UDC     C444323  11.492  10.413   9.976 -0.6685 -1.1880  1.2133
 4030UDC     C544324  11.577  10.291  10.003 -0.4145 -0.4234  1.2831
 4030UDC     C644325  11.503  10.161  10.032  0.2049 -0.1462  0.0463
 4030UDC     C744326  11.605  10.055  10.071 -0.1884 -0.5585 -0.6571
 4030UDC     C844327  11.554   9.927  10.133  0.5466  0.0934 -0.1650
 4030UDC     C944328  11.602   9.806  10.055  0.1675  0.6505 -1.4480
 4030UDC    C1044329  11.749   9.750  10.092 -0.4360 -0.2532 -0.3092
 4030UDC    C1144330  11.764   9.599  10.109 -0.1834  0.4490  0.3344
 4031UDC     C144331  10.174   0.128  11.334 -0.0030  0.6399  0.4893
 4031UDC     C244332  10.280   0.030  11.397 -0.2030  1.1734  0.5436
 4031UDC     C344333  10.428   0.038  11.361 -0.0784 -0.0231  0.5552
 4031UDC     C444334  10.480  -0.098  11.406 -0.0481  0.0848  0.4893
 4031UDC     C544335  10.624  -0.144  11.382 -0.7402  0.2948 -1.0097
 4031UDC     C644336  10.667  -0.208  11.248  0.9694 -0.0383 -0.2909
 4031UDC     C744337  10.724  -0.105  11.149 -1.0901  1.2116  0.1991
 4031UDC     C844338  10.658  -0.099  11.011 -0.1663  0.4928  0.9318
 4031UDC     C944339  10.506  -0.082  10.998 -0.8366  1.7013 -0.7505
 4031UDC    C1044340  10.469  -0.061  10.850  1.4974 -0.3398 -0.2169
 4031UDC    C1144341  10.453   0.091  10.809  0.3102  0.4948 -0.2580
 4032UDC     C144342  16.685  14.848   3.972  0.2179 -0.2707  0.2449
 4032UDC     C244343  16.716  14.810   3.822  0.2530  0.0524 -0.6423
 4032UDC     C344344  16.701  14.671   3.768 -0.2164 -0.6911  0.1409
 4032UDC     C444345  16.779  14.655   3.634  1.1567 -0.8453  1.2476
 4032UDC     C544346  16.752  14.514   3.578 -0.6378  0.1026  0.1700
 4032UDC     C644347  16.841  14.469   3.460  1.0207 -1.0167  0.3479
 4032UDC     C744348  16.968  14.408   3.519  0.7955 -0.0009 -0.3348
 4032UDC     C844349  17.074  14.373   3.407  0.5748  1.0106 -0.3575
 4032UDC     C944350  17.164  14.497   3.367 -1.0095  0.4909 -1.2264
 4032UDC    C1044351  17.292  14.452   3.305 -0.6359 -0.9857 -0.6041
 4032UDC    C1144352  17.348  14.559   3.211  0.5451  0.2237  0.7272
 4033UDC     C144353   2.423  12.717   2.799 -1.1232 -0.6892 -0.5819
 4033UDC     C244354   2.494  12.582   2.804  0.3931  0.2903  0.0824
 4033UDC     C344355   2.593  12.567   2.687  0.2391  0.4685  0.4473
 4033UDC     C444356   2.712  12.474   2.713  0.7115  0.3613  1.0551
 4033UDC     C544357   2.710  12.338   2.637 -0.5761 -0.6785 -0.2980
 4033UDC     C644358   2.848  12.272   2.638  0.4955 -0.3387 -1.0889
 4033UDC     C744359   2.935  12.236   2.766  0.0636 -0.7379  0.2019
 4033UDC     C844360   3.085  12.246   2.742 -1.0060  0.2820 -0.4820
 4033UDC     C944361   3.125  12.395   2.718 -1.5506  0.6791  0.6553
 4033UDC    C1044362   3.140  12.512   2.820  0.5893 -0.0299  0.0959
 4033UDC    C1144363   3.236  12.631   2.814  0.5096 -0.6069 -0.4242
 4034UDC     C144364  12.772   3.873   6.347 -0.2732  0.7274 -0.6806
 4034UDC     C244365  12.691   3.898   6.475  0.3829  0.1170 -0.6849
 4034UDC     C344366  12.750   3.881   6.614  0.4101  1.1227  0.1385
 4034UDC     C444367  12.637   3.843   6.708  0.2531 -0.6805 -0.3121
 4034UDC     C544368  12.574   3.703   6.706  0.6383 -0.0574  0.7627
 4034UDC     C644369  12.458   3.690   6.808 -0.6434  0.0729  0.0851
 4034UDC     C744370  12.501   3.700   6.957 -1.1812  0.9198  0.5529
 4034UDC     C844371  12.537   3.564   7.010 -1.0567  0.5659 -0.3887
 4034UDC     C944372  12.623   3.537   7.138  0.6023  0.8344 -0.4864
 4034UDC    C1044373  12.742   3.628   7.152 -0.7998  0.6133 -0.0353
 4034UDC    C1144374  12.744   3.685   7.298 -0.4090 -1.2540  0.3193
 4035UDC     C144375   5.750   1.748   7.493 -0.8515  0.3424  0.2238
 4035UDC     C244376   5.712   1.762   7.640  0.1621 -0.3020 -0.0081
 4035UDC     C344377   5.782   1.851   7.743 -0.9824  0.1064 -0.8045
 4035UDC     C444378   5.924   1.820   7.795 -0.3017  0.4446 -0.2111
 4035UDC     C544379   5.977   1.940   7.882  0.0527  0.3855  0.2482
 4035UDC     C644380   5.959   2.077   7.824 -0.8494 -0.5080  1.1420
 4035UDC     C744381   6.022   2.196   7.904 -0.9534  0.3688  0.6617
 4035UDC     C844382   6.173   2.175   7.893  0.0093  0.3805 -0.3607
 4035UDC     C944383   6.263   2.272   7.979  0.2942 -0.0961 -0.2548
 4035UDC    C1044384   6.416   2.271   7.942  0.6753 -0.7065 -1.0610
 4035UDC    C1144385   6.480   2.371   8.036 -0.2392 -0.2329  0.5924
 4036UDC     C144386   3.351  14.928  11.633 -0.0610  0.7867  0.1241
 4036UDC     C244387   3.321  14.835  11.753  0.0152 -1.9380  0.2599
 4036UDC     C344388   3.184  14.759  11.747 -0.7598  0.3160 -0.3534
 4036UDC     C444389   3.076  14.844  11.685 -0.4787 -0.0950  0.0321
 4036UDC     C544390   2.955  14.749  11.649 -0.2600 -1.6184 -0.4560
 4036UDC     C644391   2.836  14.835  11.594 -1.8710  0.2941  1.1952
 4036UDC     C744392   2.864  14.902  11.454  0.1469  0.6664 -0.8096
 4036UDC     C844393   2.743  14.983  11.409  0.2474 -0.8889 -1.5110
 4036UDC     C944394   2.623  14.903  11.342 -0.1231  0.2352 -0.7301
 4036UDC    C1044395   2.576  14.968  11.209  0.1162 -0.4331 -0.0727
 4036UDC    C1144396   2.434  15.028  11.217 -0.2690  0.4395  0.8700
 4037UDC     C144397   8.946  17.926   5.840  0.5194  1.0431 -0.3369
 4037UDC     C244398   8.827  17.898   5.740 -0.6914 -0.8673 -0.1550
 4037UDC     C344399   8.829  17.759   5.683 -0.3485  0.1868 -0.2676
 4037UDC     C444400   8.765  17.749   5.548  0.8905  0.8958  0.0006
 4037UDC     C544401   8.767  17.599   5.512 -0.8837 -0.9427  0.1376
 4037UDC     C644402   8.682  17.569   5.388 -0.3068 -0.4936  0.3369
 4037UDC     C744403   8.709  17.656   5.264 -0.0490 -0.4279  1.3402
 4037UDC     C844404   8.637  17.602   5.143  0.3633 -0.5059  0.3225
 4037UDC     C944405   8.687  17.454   5.112  0.4924 -1.0161  0.4522
 4037UDC    C1044406   8.819  17.429   5.034  0.7193 -0.3124  0.1908
 4037UDC    C1144407   8.845  17.282   5.046 -0.3390 -0.2224  0.5939
 4038UDC     C144408   2.584  17.452   2.904 -0.3171  0.0105  0.2893
 4038UDC     C244409   2.623  17.599   2.926 -0.8787  0.0522  0.2370
 4038UDC     C344410   2.739  17.623   3.022 -0.0880 -0.4662 -0.6583
 4038UDC     C444411   2.767  17.765   3.073 -1.9899 -0.8116 -0.6713
 4038UDC     C544412   2.627  17.841   3.094 -0.6004  0.3400 -0.1461
 4038UDC     C644413   2.552  17.839   3.231 -0.3071  0.7940  0.2043
 4038UDC     C744414   2.412  17.902   3.203 -0.1574 -1.5654 -0.6575
 4038UDC     C844415   2.286  17.836   3.151  0.5443 -0.3633  0.1206
 4038UDC     C944416   2.210  17.743   3.249  0.4814 -0.0223 -0.8968
 4038UDC    C1044417   2.257  17.601   3.273  0.4204  1.4066  0.3127
 4038UDC    C1144418   2.146  17.530   3.361 -0.0950 -0.6635  0.1706
 4039UDC     C144419   1.246   6.061   6.237  0.3803  0.7902 -0.6514
 4039UDC     C244420   1.329   6.037   6.367  0.5273  1.2422 -1.1561
 4039UDC     C344421   1.332   5.884   6.403  0.8442 -0.2459 -1.4036
 4039UDC     C444422   1.434   5.875   6.516 -0.1664  0.5470  0.2128
 4039UDC     C544423   1.582   5.864   6.483  0.3749 -1.4243 -0.0684
 4039UDC     C644424   1.679   5.880   6.592  1.5884 -0.3283  0.2600
 4039UDC     C744425   1.665   6.009   6.678 -0.7759 -0.0548  0.9247
 4039UDC     C844426   1.652   6.139   6.583  0.3308 -1.0304 -1.0350
 4039UDC     C944427   1.621   6.278   6.650 -0.6460  0.0906 -0.7674
 4039UDC    C1044428   1.571   6.378   6.554  0.0640  0.1710  1.3533
 4039UDC    C1144429   1.536   6.348   6.406 -0.2594 -1.0637 -0.0309
 4040UDC     C144430   3.634   1.631   3.436  0.4802  0.4952  0.1495
 4040UDC     C244431   3.562   1.630   3.300  0.0074  0.3280  0.6637
 4040UDC     C344432   3.615   1.530   3.195 -0.7354 -0.1353 -0.3392
 4040UDC     C444433   3.601   1.602   3.064  0.4001  0.0593  1.0496
 4040UDC     C544434   3.648   1.758   3.065  0.2902  0.3884  0.4349
 4040UDC     C644435   3.628   1.845   2.937  0.5310 -0.3206 -0.2208
 4040UDC     C744436   3.727   1.815   2.820  0.7464  0.0898  0.9802
 4040UDC     C844437   3.703   1.908   2.703 -0.4660 -0.1413 -0.0553
 4040UDC     C944438   3.558   1.911   2.646 -0.4871 -0.2006  0.5097
 4040UDC    C1044439   3.534   1.975   2.503 -0.2279  0.7116 -0.6003
 4040UDC    C1144440   3.385   1.997   2.516  0.5216 -0.4234 -0.1889
 4041UDC     C144441   3.977   7.978  13.144 -1.5430  0.4991  0.6377
 4041UDC     C244442   4.099   7.997  13.239 -0.0923  0.2713  0.6347
 4041UDC     C344443   4.096   8.052  13.379  0.0794  0.2267 -0.2201
 4041UDC     C444444   4.003   8.171  13.395 -0.7507  0.0418  0.7910
 4041UDC     C544445   3.977   8.189  13.545 -0.6660 -0.1908 -0.5018
 4041UDC     C644446   3.951   8.334  13.590 -0.1194  0.2811 -0.1536
 4041UDC     C744447   3.816   8.393  13.546 -0.0337 -0.2348  0.5068
 4041UDC     C844448   3.821   8.548  13.558 -0.1667  0.3388 -0.3513
 4041UDC     C944449   3.676   8.602  13.536 -0.0437  0.7333  1.1238
 4041UDC    C1044450   3.627   8.731  13.594  0.0222 -0.0168 -0.9963
 4041UDC    C1144451   3.745   8.830  13.625  0.3780 -0.3816 -0.5850
 4042UDC     C144452  11.135   7.567   8.663  0.4023 -0.4648 -0.5602
 4042UDC     C244453  11.030   7.459   8.638  0.7221 -0.4749  0.1489
 4042UDC     C344454  11.061   7.349   8.522 -0.8414  0.1475  0.2717
 4042UDC     C444455  10.956   7.231   8.509 -0.7406  0.5582 -0.4268
 4042UDC     C544456  10.893   7.228   8.368  0.7353  0.0301  0.2270
 4042UDC     C644457  10.773   7.135   8.360  0.2700 -0.3669 -0.0506
 4042UDC     C744458  10.674   7.158   8.245 -0.1674 -0.6354  0.1249
 4042UDC     C844459  10.562   7.057   8.248 -0.4488 -0.6779 -0.1067
 4042UDC     C944460  10.460   7.063   8.136 -0.8608 -0.0604 -0.5156
 4042UDC    C1044461  10.345   7.166   8.145 -0.8681  0.5570 -0.8672
 4042UDC    C1144462  10.252   7.112   8.262 -0.5727  0.3310  0.1538
 4043UDC     C144463   0.951  18.760  16.926  0.0371 -0.0654  0.0645
 4043UDC     C244464   0.805  18.700  16.947 -0.6745  0.2681  0.0401
 4043UDC     C344465   0.696  18.723  16.833 -0.7054  0.3218  0.6405
 4043UDC     C444466   0.746  18.676  16.696  0.0463  0.5634  0.4103
 4043UDC     C544467   0.758  18.800  16.605  1.2332  0.2092 -0.8786
 4043UDC     C644468   0.821  18.769  16.464  0.0347 -0.8663 -0.7128
 4043UDC     C744469   0.858  18.914  16.413  0.4136 -0.1135  0.0174
 4043UDC     C844470   0.945  18.919  16.290 -0.1184  0.3567 -0.2793
 4043UDC     C944471   0.892  18.825  16.177  0.3302 -0.8336  0.2220
 4043UDC    C1044472   0.754  18.853  16.114  0.8063 -0.2475 -0.0048
 4043UDC    C1144473   0.738  18.967  16.013  0.3301  0.1306  0.1722
 4044UDC     C144474  15.578  17.003   1.409 -0.2546  0.9065  0.0732
 4044UDC     C244475  15.612  16.876   1.338 -0.0018  0.5849  0.6915
 4044UDC     C344476  15.758  16.844   1.316 -0.6908  0.0607  0.5710
 4044UDC     C444477  15.814  16.924   1.196  0.6391  0.6750  0.0729
 4044UDC     C544478  15.899  16.827   1.109  0.2207  0.1033 -0.2994
 4044UDC     C644479  16.012  16.883   1.030 -0.1717 -0.1854 -1.0680
 4044UDC     C744480  16.072  17.009   1.093 -0.1181 -1.5399  0.0066
 4044UDC     C844481  16.200  17.064   1.029 -0.7707  0.7548  0.2969
 4044UDC     C944482  16.261  17.202   1.053 -0.0379  0.8034  0.9977
 4044UDC    C1044483  16.190  17.316   0.978  0.5949 -1.2845  0.0212
 4044UDC    C1144484  16.178  17.288   0.828  0.1138 -0.8224 -0.1048
 4045UDC     C144485  18.459  12.740  16.982 -0.7277  0.2290 -1.2872
 4045UDC     C244486  18.360  12.769  17.095  0.4607  0.7630 -1.3954
 4045UDC     C344487  18.441  12.856  17.189 -0.0799  0.6930  0.3601
 4045UDC     C444488  18.432  12.826  17.340  1.1698 -0.4733  0.4482
 4045UDC     C544489  18.563  12.816  17.416  0.5580 -0.4130  0.0363
 4045UDC     C644490  18.685  12.820  17.325  0.5117  0.4283 -0.3686
 4045UDC     C744491  18.824  12.805  17.385 -0.3920 -0.8911 -0.6852
 4045UDC     C844492  18.857  12.736  17.522  0.8269 -0.1106  0.8354
 4045UDC     C944493  19.003  12.703  17.524 -0.1060  0.3543 -0.5261
 4045UDC    C1044494  19.089  12.700  17.655  0.1935  1.9309  0.0850
 4045UDC    C1144495  19.055  12.572  17.746 -0.7333 -0.5305  0.0492
 4046UDC     C144496  11.703  10.820   8.728  0.6869 -0.6981 -0.2036
 4046UDC     C244497  11.592  10.794   8.830  0.0113 -0.9586  0.1548
 4046UDC     C344498  11.447  10.847   8.813 -1.0840 -1.1165 -0.1185
 4046UDC     C444499  11.372  10.879   8.944 -0.3106  1.1570  1.2325
 4046UDC     C544500  11.370  10.770   9.048  0.3133  0.7823 -0.0731
 4046UDC     C644501  11.227  10.747   9.106  1.3184  0.2709 -0.1326
 4046UDC     C744502  11.191  10.876   9.177 -1.1650 -1.1842 -0.9757
 4046UDC     C844503  11.276  10.913   9.298  1.2943 -0.0508  0.1017
 4046UDC     C944504  11.310  11.058   9.320  0.5674  0.2094 -0.2825
 4046UDC    C1044505  11.385  11.105   9.446 -0.0726 -0.7174  0.3625
 4046UDC    C1144506  11.532  11.065   9.437 -0.6195  0.3653  0.7171
 4047UDC     C144507   3.875  11.816   0.038  0.1462  0.9937  0.5219
 4047UDC     C244508   3.751  11.913   0.017 -0.2445  0.9981 -0.1930
 4047UDC     C344509   3.758  12.059   0.055  0.6106  0.5580 -0.6471
 4047UDC     C444510   3.615  12.096   0.036 -0.3687 -0.8897  0.2246
 4047UDC     C544511   3.523  12.043  -0.078  0.4564  0.6105 -0.4130
 4047UDC     C644512   3.554  12.137  -0.193 -0.6477 -0.1201  0.1979
 4047UDC     C744513   3.483  12.139  -0.336 -0.1816  0.2753  0.3536
 4047UDC     C844514   3.556  12.061  -0.450  1.4703 -0.4610  0.2219
 4047UDC     C944515   3.471  12.063  -0.582 -0.8265 -0.2837 -0.4345
 4047UDC    C1044516   3.537  12.162  -0.664  0.3551 -0.5461 -0.4470
 4047UDC    C1144517   3.480  12.135  -0.809  0.7589 -0.2722  0.6836
 4048UDC     C144518  18.288   9.845   8.868  0.4879  0.4840  0.4130
 4048UDC     C244519  18.352   9.752   8.964 -0.3384 -0.1105 -0.1014
 4048UDC     C344520  18.246   9.670   9.029 -0.3274 -0.3301 -1.2462
 4048UDC     C444521  18.253   9.626   9.177  0.9260 -0.6107 -0.1626
 4048UDC     C544522  18.288   9.749   9.264  1.3562 -0.3388  0.1449
 4048UDC     C644523  18.344   9.710   9.401  0.0217  0.1748  0.6030
 4048UDC     C744524  18.368   9.840   9.484  0.2187  0.2410  0.5225
 4048UDC     C844525  18.427   9.958   9.401  0.3674  0.2860 -0.0715
 4048UDC     C944526  18.437  10.085   9.497  0.3197  0.6736  0.6913
 4048UDC    C1044527  18.528  10.181   9.433  0.3318  0.2625 -0.4587
 4048UDC    C1144528  18.450  10.314   9.431  1.0278  0.2798 -0.3293
 4049UDC     C144529  14.741   9.337   7.897 -0.6308  0.0875  1.0216
 4049UDC     C244530  14.735   9.225   7.790 -0.1524  0.4057  0.4497
 4049UDC     C344531  14.860   9.135   7.788  0.4947 -0.8736  0.6189
 4049UDC     C444532  14.998   9.176   7.730  0.4745 -0.7462 -0.1023
 4049UDC     C544533  14.998   9.182   7.573  0.0340 -0.7499  0.2275
 4049UDC     C644534  15.144   9.227   7.521  0.1948 -0.0075  1.1199
 4049UDC     C744535  15.244   9.123   7.565 -0.3456  0.0852  0.0492
 4049UDC     C844536  15.391   9.142   7.531  0.7047 -0.3985 -1.7766
 4049UDC     C944537  15.461   9.249   7.627 -0.2764 -0.8101  0.0611
 4049UDC    C1044538  15.477   9.213   7.779 -0.0734  0.9966  0.4366
 4049UDC    C1144539  15.599   9.119   7.777  0.4764  0.4905  0.0476
 4050UDC     C144540   5.385   8.355  12.460 -0.5449  0.1132 -0.9288
 4050UDC     C244541   5.475   8.392  12.575  0.0862  1.2373 -0.5206
 4050UDC     C344542   5.432   8.336  12.717 -0.0972  0.5058 -0.5919
 4050UDC     C444543   5.279   8.371  12.745 -0.2027 -0.7025  1.2811
 4050UDC     C544544   5.228   8.356  12.890 -0.5400  0.2392  0.7135
 4050UDC     C644545   5.312   8.446  12.983 -0.4623 -0.0046 -0.3039
 4050UDC     C744546   5.256   8.440  13.122  0.9663 -0.5020 -0.3201
 4050UDC     C844547   5.104   8.483  13.113  0.7053 -0.4918 -0.0331
 4050UDC     C944548   5.035   8.559  13.229  1.4778  0.2752  0.3133
 4050UDC    C1044549   5.129   8.674  13.281 -0.6239 -0.1899  0.0151
 4050UDC    C1144550   5.160   8.794  13.193  0.4811  0.0189  0.2388
 4051UDC     C144551  17.507  11.306  10.936  0.5520  0.2225  0.2158
 4051UDC     C244552  17.587  11.384  10.839 -0.3339 -1.3927 -0.1973
 4051UDC     C344553  17.710  11.432  10.905 -0.6125 -0.0976  0.1240
 4051UDC     C444554  17.786  11.298  10.942  1.4480  0.1227  0.2325
 4051UDC     C544555  17.876  11.334  11.060  0.0094 -0.4807 -0.3888
 4051UDC     C644556  17.970  11.229  11.117 -1.1237  0.2033  0.1972
 4051UDC     C744557  18.035  11.255  11.258 -0.2489  0.2917  0.5530
 4051UDC     C844558  18.094  11.396  11.257  0.4435 -0.1065 -0.2194
 4051UDC     C944559  18.226  11.420  11.335  0.6794 -0.5232  0.6044
 4051UDC    C1044560  18.243  11.571  11.358 -0.7611 -0.1212  0.9330
 4051UDC    C1144561  18.377  11.595  11.431 -0.6025  0.1436  0.4009
 4052UDC     C144562  13.385   6.396   4.198  0.4690 -0.2599 -0.6520
 4052UDC     C244563  13.377   6.530   4.272 -0.2662  2.1318  0.1886
 4052UDC     C344564  13.421   6.508   4.423  0.4794  0.3931  0.6249
 4052UDC     C444565  13.370   6.381   4.489 -0.1302  0.2142  0.2885
 4052UDC     C544566  13.276   6.410   4.601 -0.2982  0.6549 -0.1570
 4052UDC     C644567  13.159   6.300   4.604  1.3035  0.4521  0.2505
 4052UDC     C744568  13.081   6.291   4.470  0.0518 -0.4628 -0.2485
 4052UDC     C844569  13.051   6.147   4.422  1.1826  0.9873 -0.5176
 4052UDC     C944570  12.964   6.134   4.296 -0.7597  0.3370  0.3056
 4052UDC    C1044571  12.855   6.025   4.283 -0.6776 -0.0044 -0.8868
 4052UDC    C1144572  12.767   6.012   4.403  0.1174 -0.3403  0.1863
 4053UDC     C144573   2.511   6.034   7.243 -0.7565 -0.5070  0.6429
 4053UDC     C244574   2.505   5.950   7.372  0.7985 -0.0293  0.1424
 4053UDC     C344575   2.616   5.972   7.478 -0.1396 -0.1626 -0.2204
 4053UDC     C444576   2.626   5.905   7.616  0.4654 -0.9199 -0.6914
 4053UDC     C544577   2.761   5.947   7.684  0.6610  0.5112 -0.1727
 4053UDC     C644578   2.757   5.931   7.841 -0.2672 -0.2036  0.5306
 4053UDC     C744579   2.765   5.793   7.900  0.0729 -0.0594 -0.5217
 4053UDC     C844580   2.725   5.805   8.045  0.9729 -1.6673  0.3341
 4053UDC     C944581   2.745   5.677   8.127  0.2992  0.2197  0.0655
 4053UDC    C1044582   2.630   5.578   8.135 -0.2092  0.0204  1.1016
 4053UDC    C1144583   2.542   5.578   8.261 -0.8518  0.0796  0.1549
 4054UDC     C144584  19.029   1.807  17.871  0.0287 -0.0677 -1.6442
 4054UDC     C244585  18.979   1.932  17.937 -0.7922  0.8465 -1.0935
 4054UDC     C344586  18.863   2.031  17.890 -1.1526  0.2274 -0.4320
 4054UDC     C444587  18.881   2.087  17.747  0.1014 -0.0200  0.2962
 4054UDC     C544588  18.765   2.159  17.685 -0.2400 -0.7397  0.3527
 4054UDC     C644589  18.813   2.218  17.552 -0.9206 -0.3825  0.0238
 4054UDC     C744590  18.765   2.366  17.545 -0.8007  0.5172  0.8127
 4054UDC     C844591  18.823   2.447  17.424 -0.0784  0.6702  0.4571
 4054UDC     C944592  18.757   2.584  17.415 -0.5862 -1.2334  1.1504
 4054UDC    C1044593  18.800   2.667  17.284  0.4905 -0.8091 -0.2356
 4054UDC    C1144594  18.676   2.735  17.216 -0.8999 -0.3251 -0.0154
 4055UDC     C144595   2.487  16.583   6.351 -0.7686  0.4901 -0.5111
 4055UDC     C244596   2.458  16.558   6.503 -1.3571 -0.1002  0.4081
 4055UDC     C344597   2.343  16.642   6.547 -0.0599 -0.5183  0.7499
 4055UDC     C444598   2.361  16.790   6.531 -1.0636 -0.1220 -0.5291
 4055UDC     C544599   2.463  16.845   6.628  0.7151  0.2261 -1.1736
 4055UDC     C644600   2.479  16.996   6.626 -0.3134  0.9772 -0.9362
 4055UDC     C744601   2.576  17.064   6.730  0.1061 -0.2214 -0.0494
 4055UDC     C844602   2.594  17.219   6.708  0.4747  0.3473  0.3016
 4055UDC     C944603   2.692  17.302   6.798 -0.6413 -0.2138  0.9741
 4055UDC    C1044604   2.686  17.440   6.738 -0.4428  0.0099  0.4616
 4055UDC    C1144605   2.738  17.415   6.592 -0.0721 -1.1345  0.1006
 4056UDC     C144606   2.198   0.209  15.322  0.9385  0.4809 -0.9362
 4056UDC     C244607   2.255   0.346  15.291  0.4180 -0.9420 -0.8298
 4056UDC     C344608   2.277   0.431  15.418 -0.0796 -0.9619 -0.0244
 4056UDC     C444609   2.387   0.361  15.487 -0.7553  0.2552 -0.8626
 4056UDC     C544610   2.479   0.435  15.579  0.6533  0.5947 -0.9868
 4056UDC     C644611   2.579   0.386  15.683 -0.0625 -1.6623 -0.1681
 4056UDC     C744612   2.632   0.510  15.747  0.3678 -0.2966 -0.4390
 4056UDC     C844613   2.759   0.496  15.825 -0.1858 -0.6775 -0.0203
 4056UDC     C944614   2.896   0.464  15.752  1.0932  0.3585  0.7146
 4056UDC    C1044615   2.991   0.375  15.842 -0.1641  0.0962  0.7884
 4056UDC    C1144616   2.948   0.228  15.826 -0.4380 -0.6692  0.3948
 4057UDC     C144617  19.970  19.282   9.570  0.5926 -0.8057  0.3182
 4057UDC     C244618  19.856  19.211   9.505 -0.2826  0.3621 -0.4021
 4057UDC     C344619  19.775  19.312   9.424 -0.4026  0.3429  0.5098
 4057UDC     C444620  19.669  19.240   9.332 -0.1278 -0.8390 -0.6213
 4057UDC     C544621  19.550  19.343   9.291  0.1999  0.8072  0.3122
 4057UDC     C644622  19.480  19.402   9.414  0.1211  0.2630 -0.6384
 4057UDC     C744623  19.379  19.300   9.474 -1.0377  0.2758  0.4245
 4057UDC     C844624  19.304  19.358   9.600 -0.4660  0.3292 -0.9100
 4057UDC     C944625  19.167  19.301   9.638  0.2404 -0.5293 -0.7288
 4057UDC    C1044626  19.115  19.325   9.778  0.0039  0.2465  0.7512
 4057UDC    C1144627  18.989  19.232   9.786  0.9714 -0.3487 -1.1431
 4058UDC     C144628   2.095   1.848   5.777  0.0273  1.1784 -0.0965
 4058UDC     C244629   2.159   1.863   5.923  0.4201  0.1073  1.2080
 4058UDC     C344630   2.313   1.833   5.906 -0.0527  1.0950 -0.6841
 4058UDC     C444631   2.349   1.761   5.772 -0.0562  0.4137 -1.8397
 4058UDC     C544632   2.499   1.726   5.737 -0.7002  0.6369  1.0890
 4058UDC     C644633   2.598   1.653   5.829 -1.6147 -0.2197 -1.1548
 4058UDC     C744634   2.576   1.512   5.869  0.3530  1.3715  0.3595
 4058UDC     C844635   2.712   1.463   5.923  0.8354  0.6834  0.1264
 4058UDC     C944636   2.809   1.461   5.800 -0.2750  0.3182  0.9178
 4058UDC    C1044637   2.942   1.391   5.834  0.2553 -0.8725 -0.2233
 4058UDC    C1144638   3.047   1.395   5.716 -0.7398  0.2343 -0.6091
 4059UDC     C144639  19.014   8.184   9.918 -0.1518  0.0501  0.2978
 4059UDC     C244640  19.037   8.066  10.009 -0.3781 -0.7377 -0.2167
 4059UDC     C344641  19.157   8.084  10.105  0.3592 -0.2092 -0.9958
 4059UDC     C444642  19.166   7.972  10.206  0.0402  0.5867 -0.4358
 4059UDC     C544643  19.299   7.901  10.247 -0.0874 -1.2836  0.7479
 4059UDC     C644644  19.272   7.779  10.337 -0.0850 -0.3780  0.5324
 4059UDC     C744645  19.242   7.834  10.476  0.1357 -0.8625 -0.3990
 4059UDC     C844646  19.379   7.873  10.539 -0.7781 -0.1669  0.9169
 4059UDC     C944647  19.375   7.912  10.682  0.4266 -0.0847 -0.8486
 4059UDC    C1044648  19.499   7.924  10.772  0.9604 -0.8277  1.4419
 4059UDC    C1144649  19.576   7.800  10.800  0.3949  0.1675 -0.3459
 4060UDC     C144650   3.552  17.264   1.387 -0.1643  0.2054 -1.1194
 4060UDC     C244651   3.481  17.393   1.434 -0.9214  0.4850  1.3640
 4060UDC     C344652   3.582  17.499   1.476  0.3243 -0.5471  0.4678
 4060UDC     C444653   3.672  17.545   1.365 -0.5449 -0.4139  0.2342
 4060UDC     C544654   3.761  17.667   1.395 -2.1428 -0.5986  1.3394
 4060UDC     C644655   3.909  17.682   1.333 -0.4621  0.3548 -0.2459
 4060UDC     C744656   4.013  17.638   1.445  0.0661  0.3268  0.3573
 4060UDC     C844657   4.013  17.489   1.491  1.0583 -1.1826 -0.4019
 4060UDC     C944658   4.079  17.473   1.629  0.1367  0.1030 -0.1781
 4060UDC    C1044659   4.088  17.327   1.667  0.7853  0.1929 -0.2521
 4060UDC    C1144660   4.170  17.296   1.799  0.6343 -0.1404  0.3329
 4061UDC     C144661  16.677   7.612  10.246  0.5763 -0.2009  0.0505
 4061UDC     C244662  16.539   7.602  10.185  0.6427  0.3194  0.9443
 4061UDC     C344663  16.453   7.574  10.307  0.3355 -1.2866 -0.1400
 4061UDC     C444664  16.456   7.424  10.339  0.7878 -0.0903  0.3507
 4061UDC     C544665  16.328   7.351  10.389 -0.2229  0.9659  0.1707
 4061UDC     C644666  16.215   7.334  10.282  0.5681 -0.5945 -0.4431
 4061UDC     C744667  16.096   7.243  10.332  0.3563  0.2969 -0.3028
 4061UDC     C844668  16.053   7.246  10.476 -0.1444 -0.5033 -0.7550
 4061UDC     C944669  15.936   7.147  10.464  0.5235  0.2403 -0.1858
 4061UDC    C1044670  15.849   7.115  10.589 -0.4995 -0.5398  0.3696
 4061UDC    C1144671  15.722   7.027  10.547 -0.6544 -0.8522  0.3231
 4062UDC     C144672   3.123  16.617   1.558 -0.2405 -0.4430 -0.5227
 4062UDC     C244673   2.992  16.682   1.588  0.2767  0.6100 -0.7642
 4062UDC     C344674   2.893  16.694   1.474  0.4560  0.0539  0.2027
 4062UDC     C444675   2.771  16.613   1.506  0.3416  0.0702 -0.0214
 4062UDC     C544676   2.672  16.635   1.386 -0.0663 -1.3229  0.7710
 4062UDC     C644677   2.521  16.603   1.400  0.0667  0.0019  0.2214
 4062UDC     C744678   2.469  16.463   1.441 -0.0945 -0.1233 -0.0683
 4062UDC     C844679   2.320  16.464   1.459 -0.3026 -0.1574 -0.3593
 4062UDC     C944680   2.243  16.343   1.510  0.5708 -0.1077 -0.5198
 4062UDC    C1044681   2.258  16.329   1.667  0.3101  1.3176 -0.3132
 4062UDC    C1144682   2.213  16.443   1.756  0.7827  0.2583 -0.4380
 4063UDC     C144683  17.003  19.616   3.614  0.9061  0.0959 -0.7137
 4063UDC     C244684  16.986  19.767   3.599 -0.4432  0.7267 -0.2445
 4063UDC     C344685  16.908  19.830   3.716 -0.5802  1.1462  0.0857
 4063UDC     C444686  16.757  19.824   3.699 -0.1867  0.1998 -0.4430
 4063UDC     C544687  16.692  19.907   3.585  0.6721 -0.1453  0.2839
 4063UDC     C644688  16.538  19.924   3.595  0.0338  0.5983 -0.2260
 4063UDC     C744689  16.500  19.994   3.728 -0.7292 -0.8331 -0.9369
 4063UDC     C844690  16.357  19.974   3.784  0.4792  0.1615 -0.3360
 4063UDC     C944691  16.333  20.021   3.921 -0.5659 -0.2877 -0.1391
 4063UDC    C1044692  16.448  20.044   4.019 -0.3932  0.1171  0.7497
 4063UDC    C1144693  16.392  20.110   4.149 -0.5495  0.4935  0.1150
 4064UDC     C144694   3.170  14.621   8.404  1.2080  0.5774  0.2907
 4064UDC     C244695   3.061  14.670   8.303 -1.3189 -0.1617 -1.1474
 4064UDC     C344696   3.110  14.778   8.211 -0.9819  0.1684  0.0661
 4064UDC     C444697   3.062  14.740   8.073  0.2188 -0.6431  0.3295
 4064UDC     C544698   3.098  14.605   8.014  0.5591  0.2494 -0.2190
 4064UDC     C644699   3.063  14.613   7.871 -1.4448 -0.5441  1.3755
 4064UDC     C744700   3.137  14.513   7.780 -0.3193  0.2293  0.8085
 4064UDC     C844701   3.067  14.437   7.659  0.5916 -1.8907 -0.5181
 4064UDC     C944702   2.996  14.319   7.730  0.3654 -0.2567  1.1975
 4064UDC    C1044703   2.929  14.205   7.642 -0.6783  0.1782  0.7585
 4064UDC    C1144704   2.880  14.085   7.733  0.5156  0.6896 -0.6509
 4065UDC     C144705   6.782   2.287   1.745 -0.7771  0.5946  0.7932
 4065UDC     C244706   6.893   2.297   1.853 -0.0609  0.9599 -0.4231
 4065UDC     C344707   6.854   2.230   1.986 -0.9670  0.2738  1.1296
 4065UDC     C444708   6.746   2.294   2.073 -0.1016  0.7116 -0.1882
 4065UDC     C544709   6.727   2.221   2.213 -0.0263  0.8315 -0.1619
 4065UDC     C644710   6.651   2.277   2.327  0.4544 -0.1277 -0.0642
 4065UDC     C744711   6.573   2.160   2.384  0.4303  0.0242 -0.0427
 4065UDC     C844712   6.429   2.187   2.434  0.3313  0.3208 -0.7079
 4065UDC     C944713   6.339   2.208   2.306 -0.1445  0.8461  0.1351
 4065UDC    C1044714   6.206   2.118   2.314  0.9104 -0.3533  0.6712
 4065UDC    C1144715   6.089   2.153   2.216 -0.2088  0.7082 -0.1142
 4066UDC     C144716  19.207   7.263  13.489 -0.3657  0.1887  0.2087
 4066UDC     C244717  19.183   7.412  13.486  0.3035 -0.6642  0.1871
 4066UDC     C344718  19.282   7.502  13.413 -0.6286  0.7675  1.3615
 4066UDC     C444719  19.292   7.657  13.415  0.4404  0.6369 -0.5715
 4066UDC     C544720  19.436   7.697  13.426 -1.2526 -0.6208 -0.2048
 4066UDC     C644721  19.539   7.714  13.310  0.3121  0.4830  0.4032
 4066UDC     C744722  19.689   7.694  13.353 -0.1764  0.6022 -0.2808
 4066UDC     C844723  19.743   7.816  13.435 -0.1408 -1.6029 -0.6252
 4066UDC     C944724  19.877   7.791  13.514 -0.3578 -0.0618 -0.4043
 4066UDC    C1044725  19.876   7.699  13.632  0.4504 -0.9471 -0.5669
 4066UDC    C1144726  19.783   7.760  13.746  0.8313  1.3318 -0.3586
 4067UDC     C144727   8.129  17.099  19.765  1.2953  0.8874  0.6519
 4067UDC     C244728   8.100  17.162  19.622 -0.7595  0.7575 -0.0323
 4067UDC     C344729   8.062  17.059  19.515  0.5533 -1.1180  0.5850
 4067UDC     C444730   8.122  17.031  19.375  0.1787  0.1383 -0.1624
 4067UDC     C544731   8.268  17.007  19.330 -0.0809 -0.5755  0.3727
 4067UDC     C644732   8.385  17.101  19.356 -0.3957 -0.5682 -0.4680
 4067UDC     C744733   8.499  17.029  19.293  0.0591 -0.5908  0.3983
 4067UDC     C844734   8.484  17.048  19.139  0.1022  0.2488  1.3596
 4067UDC     C944735   8.606  17.021  19.047  0.7392  0.2057 -0.8113
 4067UDC    C1044736   8.746  17.043  19.103 -0.1683 -0.6945 -0.5540
 4067UDC    C1144737   8.853  16.997  19.003 -0.0670  0.2278  0.3862
 4068UDC     C144738  11.985  13.262   7.926  0.1288  0.1948 -0.2496
 4068UDC     C244739  12.057  13.405   7.909  0.3034  0.1589  0.0848
 4068UDC     C344740  12.024  13.485   8.034 -0.2418 -0.5669 -0.6820
 4068UDC     C444741  11.872  13.479   8.054 -0.0029  0.0674  0.0232
 4068UDC     C544742  11.805  13.515   8.191  0.5495  0.1457 -0.9689
 4068UDC     C644743  11.814  13.408   8.302  0.5432 -0.9261  0.2623
 4068UDC     C744744  11.936  13.436   8.387 -0.2690  0.0629 -1.3228
 4068UDC     C844745  11.944  13.563   8.481  0.6821  0.5061 -0.1374
 4068UDC     C944746  11.833  13.533   8.584 -1.0823 -0.3520 -1.4194
 4068UDC    C1044747  11.830  13.626   8.713 -0.1635 -1.1506  0.7000
 4068UDC    C1144748  11.702  13.624   8.791  0.7366 -0.5865 -0.3901
 4069UDC     C144749  18.202   2.646   8.653 -0.2471  1.3570  0.1073
 4069UDC     C244750  18.268   2.718   8.539  0.3485  0.6534  0.6347
 4069UDC     C344751  18.277   2.655   8.394 -0.1454 -0.4273 -0.5977
 4069UDC     C444752  18.331   2.510   8.403  0.9780  0.4765  0.7982
 4069UDC     C544753  18.485   2.504   8.396 -0.5752  0.1934 -0.7609
 4069UDC     C644754  18.557   2.375   8.391  0.4301 -0.1344  0.9380
 4069UDC     C744755  18.692   2.402   8.456  0.8584  0.7674  0.7822
 4069UDC     C844756  18.786   2.277   8.445 -0.3077 -0.0597  0.8625
 4069UDC     C944757  18.716   2.145   8.490  0.3632  0.5021  0.4108
 4069UDC    C1044758  18.810   2.032   8.520 -1.2601 -0.0674  0.6933
 4069UDC    C1144759  18.928   2.069   8.617 -0.0859  0.1225 -0.0450
 4070UDC     C144760   3.309   8.118  12.203 -0.0364 -0.7516  0.3522
 4070UDC     C244761   3.395   8.117  12.079 -0.6392 -0.9700 -0.3645
 4070UDC     C344762   3.506   8.021  12.087 -1.4624 -0.1909 -0.9473
 4070UDC     C444763   3.458   7.884  12.113  0.7926  1.5084 -0.8976
 4070UDC     C544764   3.556   7.765  12.130 -0.5889  1.1764  0.6619
 4070UDC     C644765   3.487   7.645  12.200 -0.4740  1.4629  0.9051
 4070UDC     C744766   3.597   7.576  12.273 -0.5353 -0.2789 -0.1752
 4070UDC     C844767   3.582   7.427  12.294 -0.5886  0.2278 -0.3096
 4070UDC     C944768   3.696   7.376  12.387  1.0376  0.0285 -0.1636
 4070UDC    C1044769   3.843   7.379  12.330 -0.1527 -0.4314  1.3182
 4070UDC    C1144770   3.891   7.293  12.216 -0.3964  0.0528 -0.8201
 4071UDC     C144771  10.793  14.589   7.979 -0.0313 -1.1378  0.9972
 4071UDC     C244772  10.762  14.594   7.827  0.5036  0.6161  0.0425
 4071UDC     C344773  10.649  14.498   7.795 -0.4172 -0.2837 -0.8052
 4071UDC     C444774  10.611  14.497   7.650  0.0234 -0.8265 -0.0006
 4071UDC     C544775  10.725  14.459   7.543  0.0101  0.9799 -0.4629
 4071UDC     C644776  10.828  14.353   7.562  0.0614 -0.4016 -0.7979
 4071UDC     C744777  10.920  14.314   7.451 -1.0921 -0.7658  0.2341
 4071UDC     C844778  10.988  14.168   7.461  0.2141 -1.2493 -0.7052
 4071UDC     C944779  10.887  14.063   7.517 -0.4720  0.2549 -0.8419
 4071UDC    C1044780  10.964  13.932   7.520  0.1237 -1.3177 -0.2905
 4071UDC    C1144781  11.059  13.945   7.643  0.4968  0.2480 -0.0614
 4072UDC     C144782  13.605  14.927  18.315  0.6539  0.7692  0.5394
 4072UDC     C244783  13.537  14.904  18.453 -0.4598 -0.8700 -0.0647
 4072UDC     C344784  13.387  14.869  18.433  0.4517 -0.7735 -0.5310
 4072UDC     C444785  13.301  14.823  18.559 -0.1054  0.7189 -0.2964
 4072UDC     C544786  13.368  14.696  18.615  0.5165  0.0807  0.0862
 4072UDC     C644787  13.268  14.593  18.680  0.4312 -0.4825 -0.6462
 4072UDC     C744788  13.316  14.444  18.680  0.2348 -0.4151 -0.0837
 4072UDC     C844789  13.449  14.426  18.766 -0.1497 -0.1464  0.0291
 4072UDC     C944790  13.523  14.299  18.776  0.8079  0.2766 -0.0967
 4072UDC    C1044791  13.602  14.257  18.651  0.4290  0.3440 -0.2554
 4072UDC    C1144792  13.707  14.146  18.662 -0.0477  0.7327 -0.6813
 4073UDC     C144793  12.323  13.215  13.570  0.6793 -0.0411 -0.4246
 4073UDC     C244794  12.225  13.130  13.491 -0.7412 -0.1746 -0.3216
 4073UDC     C344795  12.162  13.204  13.371 -0.7163  0.3167  0.3107
 4073UDC     C444796  12.076  13.321  13.392 -1.1178  0.7620 -0.4721
 4073UDC     C544797  12.060  13.414  13.274  0.3790 -1.2640  0.1492
 4073UDC     C644798  12.125  13.382  13.136 -0.4449  0.8554 -0.4394
 4073UDC     C744799  12.171  13.494  13.046 -0.2073 -0.0195  0.1635
 4073UDC     C844800  12.092  13.502  12.913  0.0091 -1.0443  0.4895
 4073UDC     C944801  12.125  13.378  12.827 -1.2840  0.3280  0.9256
 4073UDC    C1044802  12.078  13.413  12.682  0.3299  0.6142 -0.0307
 4073UDC    C1144803  11.931  13.444  12.663 -0.1287  0.5414  0.3494
 4074UDC     C144804   0.446   1.464  16.691 -0.1692  0.0622 -0.7868
 4074UDC     C244805   0.462   1.424  16.836 -0.2754 -0.5364 -0.0698
 4074UDC     C344806   0.593   1.365  16.883 -1.0485  0.6502 -0.3481
 4074UDC     C444807   0.582   1.323  17.028 -1.0311 -0.1469 -1.1402
 4074UDC     C544808   0.452   1.250  17.032 -0.0286 -0.3796 -0.6568
 4074UDC     C644809   0.435   1.204  17.175 -0.6975 -0.7198  0.8095
 4074UDC     C744810   0.514   1.076  17.218 -0.2039  0.4325 -0.5071
 4074UDC     C844811   0.424   0.949  17.230 -0.3505 -0.4097  0.1430
 4074UDC     C944812   0.335   0.945  17.350  1.4581  0.4643  0.1920
 4074UDC    C1044813   0.400   0.851  17.451  0.2059  0.2546  0.6664
 4074UDC    C1144814   0.352   0.705  17.441  0.1322 -0.4428  0.4672
 4075UDC     C144815   2.447   0.934  17.552  0.2944 -1.0558  1.3374
 4075UDC     C244816   2.289   0.934  17.579  0.0426 -0.4667  0.1389
 4075UDC     C344817   2.210   0.824  17.493 -0.6501 -0.5124  0.8999
 4075UDC     C444818   2.265   0.686  17.442 -0.1166  0.9424  0.3794
 4075UDC     C544819   2.163   0.641  17.340 -0.0503  0.5416 -1.0918
 4075UDC     C644820   2.215   0.514  17.258  0.1346 -0.1750 -0.4816
 4075UDC     C744821   2.341   0.529  17.168  0.1692 -0.3372 -1.9734
 4075UDC     C844822   2.453   0.431  17.209  0.1432 -0.0719 -1.1933
 4075UDC     C944823   2.472   0.379  17.357  0.0762 -0.3527 -0.6309
 4075UDC    C1044824   2.576   0.263  17.370  0.2511 -0.0675  0.3088
 4075UDC    C1144825   2.561   0.187  17.507  0.2655  0.5248 -0.0813
 4076UDC     C144826   8.398  11.711  13.319 -0.1421 -0.0938 -0.6328
 4076UDC     C244827   8.367  11.591  13.413  0.3244 -0.5489 -0.2056
 4076UDC     C344828   8.263  11.638  13.516  1.2390 -1.1362  0.3232
 4076UDC     C444829   8.187  11.546  13.618 -0.0903  0.9079 -0.3902
 4076UDC     C544830   8.096  11.447  13.544  0.1596  0.2961 -0.5227
 4076UDC     C644831   7.950  11.511  13.546  0.4530 -0.1528  0.6644
 4076UDC     C744832   7.833  11.420  13.525 -0.2278  0.4108  0.0683
 4076UDC     C844833   7.695  11.470  13.542 -0.2223 -0.6829  0.1133
 4076UDC     C944834   7.600  11.351  13.526  0.3511 -0.5850  0.8193
 4076UDC    C1044835   7.458  11.405  13.545 -0.3073 -0.2168 -0.3865
 4076UDC    C1144836   7.372  11.278  13.562  0.8402 -0.3640 -0.0796
 4077UDC     C144837  10.997  10.963  16.387  0.2124 -0.4566  0.4346
 4077UDC     C244838  11.133  11.017  16.423 -0.5247 -0.1772  0.1028
 4077UDC     C344839  11.204  11.083  16.299  0.5003 -0.5681  0.1524
 4077UDC     C444840  11.132  11.179  16.199 -0.4240 -0.1896  0.5537
 4077UDC     C544841  11.157  11.108  16.066  0.2802 -0.3495  0.6424
 4077UDC     C644842  11.135  11.188  15.933  0.1573  0.2438  0.6750
 4077UDC     C744843  11.105  11.084  15.819 -0.1824 -0.7911  0.0905
 4077UDC     C844844  11.084  11.153  15.682 -0.4260  0.5866  0.6199
 4077UDC     C944845  11.187  11.108  15.570  0.4019 -0.9541  0.2828
 4077UDC    C1044846  11.334  11.142  15.606 -0.8236 -0.1179 -0.2399
 4077UDC    C1144847  11.455  11.150  15.514  0.3940 -0.1650  0.5355
 4078UDC     C144848   7.274   0.801   1.024  1.2738  0.4248 -0.1133
 4078UDC     C244849   7.285   0.948   0.980 -0.2692  0.1534 -0.6628
 4078UDC     C344850   7.423   0.970   0.912  0.1662 -1.2475  1.4447
 4078UDC     C444851   7.453   0.880   0.789  0.2096 -0.6113  0.2165
 4078UDC     C544852   7.599   0.873   0.742 -0.2522  0.0189 -0.1104
 4078UDC     C644853   7.712   0.880   0.852  0.4337 -0.0057  0.0298
 4078UDC     C744854   7.832   0.982   0.829  0.3443 -0.5537 -0.3834
 4078UDC     C844855   7.787   1.130   0.813 -0.1732  0.5689 -0.4824
 4078UDC     C944856   7.898   1.218   0.878  0.0414  0.7599  0.8906
 4078UDC    C1044857   7.940   1.177   1.019  0.8368  0.6510 -0.6387
 4078UDC    C1144858   8.072   1.220   1.084  0.5972  0.0438 -0.0785
 4079UDC     C144859   4.275  12.582   8.814 -0.3581 -0.9913  0.2154
 4079UDC     C244860   4.384  12.539   8.915 -0.8118  0.1636 -0.0375
 4079UDC     C344861   4.323  12.506   9.050  0.2283 -0.9029 -0.2638
 4079UDC     C444862   4.214  12.398   9.051  0.8077  0.1973  0.5932
 4079UDC     C544863   4.255  12.262   8.994  0.9038  0.1736  0.8438
 4079UDC     C644864   4.152  12.152   9.032  0.0258 -0.2395 -0.4548
 4079UDC     C744865   4.045  12.144   8.920 -0.3737 -0.1710 -0.0460
 4079UDC     C844866   4.104  12.025   8.835 -0.2110  0.3185 -0.1778
 4079UDC     C944867   4.170  11.905   8.903  0.3395  0.4955  0.5037
 4079UDC    C1044868   4.263  11.811   8.824 -0.3605 -0.1289  0.0328
 4079UDC    C1144869   4.268  11.665   8.867 -0.5981  1.1389  1.0369
 4080UDC     C144870   6.621   5.892  18.970  0.5806  0.5781  0.2077
 4080UDC     C244871   6.776   5.914  19.001 -0.1566  0.7165  0.1907
 4080UDC     C344872   6.863   5.792  18.962 -0.3335 -0.3729  0.6824
 4080UDC     C444873   7.020   5.810  18.974 -0.0625 -0.5210  1.0382
 4080UDC     C544874   7.078   5.689  18.907  0.2779  0.1331 -0.1010
 4080UDC     C644875   7.024   5.665  18.769  0.2642 -0.6622  0.2126
 4080UDC     C744876   7.032   5.510  18.743  0.0037 -0.5469  0.0610
 4080UDC     C844877   7.162   5.425  18.765 -0.6988 -0.7568  0.1909
 4080UDC     C944878   7.146   5.280  18.722 -0.2825  0.0015 -0.9849
 4080UDC    C1044879   7.268   5.198  18.756 -0.1081 -0.0574  0.6640
 4080UDC    C1144880   7.271   5.051  18.753 -0.6607 -0.6032  0.3330
 4081UDC     C144881   4.644  10.308   4.001 -0.1775  0.2416  0.9445
 4081UDC     C244882   4.526  10.331   3.908  0.5096  0.2202 -0.1465
 4081UDC     C344883   4.559  10.325   3.756  0.7123  1.0314 -0.2699
 4081UDC     C444884   4.605  10.453   3.681  0.0042  0.4346  0.3388
 4081UDC     C544885   4.646  10.411   3.542  0.5898  0.1078 -0.0549
 4081UDC     C644886   4.752  10.300   3.518 -0.4585  0.0554 -0.7911
 4081UDC     C744887   4.891  10.315   3.584 -0.4750 -0.4012 -0.3232
 4081UDC     C844888   4.994  10.212   3.535 -0.2504  0.2420  0.3763
 4081UDC     C944889   5.132  10.200   3.611  0.1430 -1.6589  0.0450
 4081UDC    C1044890   5.216  10.081   3.558  0.1063 -0.3536  0.7350
 4081UDC    C1144891   5.334  10.029   3.641  0.1465  0.6223 -0.4809
 4082UDC     C144892   5.114   6.264   9.200  0.4502  0.5155 -0.1159
 4082UDC     C244893   5.024   6.294   9.313 -0.6254 -0.1800 -0.5369
 4082UDC     C344894   4.894   6.357   9.265 -0.7971 -0.5835  0.9730
 4082UDC     C444895   4.777   6.396   9.359  0.7520  0.2189  0.2156
 4082UDC     C544896   4.793   6.540   9.408  0.1971  1.0084 -0.5270
 4082UDC     C644897   4.655   6.603   9.431 -0.1891  0.4700  0.8006
 4082UDC     C744898   4.667   6.761   9.465  1.5187  0.4858 -0.3675
 4082UDC     C844899   4.696   6.847   9.343  0.3599  0.4314 -0.1258
 4082UDC     C944900   4.650   6.996   9.352  0.0032  0.1985  0.0812
 4082UDC    C1044901   4.641   7.074   9.224 -0.1643  0.6922 -0.0346
 4082UDC    C1144902   4.670   7.223   9.247  0.1693  0.5779  1.4975
 4083UDC     C144903  13.484  12.533  17.286  0.6434 -0.2249  0.6896
 4083UDC     C244904  13.426  12.491  17.429  0.9541  0.5340 -0.0809
 4083UDC     C344905  13.474  12.575  17.547 -0.1479  0.2758  0.0612
 4083UDC     C444906  13.628  12.574  17.554  1.3185 -0.2783  0.3898
 4083UDC     C544907  13.698  12.649  17.670  1.4077  0.9420 -0.0715
 4083UDC     C644908  13.847  12.611  17.667 -0.0848  0.6060  0.6179
 4083UDC     C744909  13.924  12.679  17.548 -0.0860  1.3616 -1.1916
 4083UDC     C844910  14.059  12.606  17.527  0.6698 -0.7559 -0.3082
 4083UDC     C944911  14.051  12.480  17.438  0.3569 -0.8326  0.9266
 4083UDC    C1044912  14.166  12.380  17.462 -0.1384  0.0535 -0.4465
 4083UDC    C1144913  14.184  12.366  17.617  0.1156 -1.1158  0.6883
 4084UDC     C144914  13.898   0.649   7.250 -0.6248  0.1281 -0.2242
 4084UDC     C244915  13.787   0.758   7.259  0.0407 -0.7051  0.8986
 4084UDC     C344916  13.702   0.743   7.390 -0.0190  0.7981  1.3854
 4084UDC     C444917  13.602   0.865   7.381  0.5284  0.4643  0.1079
 4084UDC     C544918  13.537   0.896   7.245  0.0993  0.4589 -0.4609
 4084UDC     C644919  13.479   1.038   7.265 -1.5542  0.3193 -0.0366
 4084UDC     C744920  13.392   1.092   7.149 -0.5308 -1.4348  0.5914
 4084UDC     C844921  13.300   1.007   7.069  0.8931  1.2973  0.6239
 4084UDC     C944922  13.161   1.077   7.083  0.2174  0.9455  0.1027
 4084UDC    C1044923  13.064   1.007   6.989 -0.2404 -0.7369  0.1259
 4084UDC    C1144924  13.054   1.096   6.864  0.0137 -0.8422  1.1306
 4085UDC     C144925   0.019  13.687   1.044 -0.4064 -0.3029 -0.7950
 4085UDC     C244926   0.072  13.816   1.111 -0.3309  1.3597 -0.5904
 4085UDC     C344927   0.226  13.802   1.113 -0.0431 -0.1140  1.1253
 4085UDC     C444928   0.280  13.779   0.970 -0.0908  0.4768  0.5520
 4085UDC     C544929   0.433  13.752   0.976 -0.4553  0.4809  0.4960
 4085UDC     C644930   0.522  13.780   0.855  0.0092  0.4991  0.3491
 4085UDC     C744931   0.653  13.698   0.846  0.4215  0.1508  0.0647
 4085UDC     C844932   0.779  13.759   0.912 -0.4104  0.8506  0.2578
 4085UDC     C944933   0.826  13.889   0.844  0.2129 -0.3142  0.7022
 4085UDC    C1044934   0.946  13.863   0.749  0.3206  0.3085 -0.6870
 4085UDC    C1144935   0.903  13.763   0.643  0.7739  0.2803  0.5350
 4086UDC     C144936  13.136   0.093   5.273  0.0517 -0.5284  0.5551
 4086UDC     C244937  13.183   0.045   5.134 -0.0882 -0.5965 -0.0511
 4086UDC     C344938  13.287   0.123   5.050  0.2113  0.5041  0.0704
 4086UDC     C444939  13.430   0.105   5.107 -0.1076 -0.8253  0.0978
 4086UDC     C544940  13.538   0.138   4.999 -0.4165  1.1058 -0.1438
 4086UDC     C644941  13.579   0.282   4.986  0.3266 -0.7350  1.1964
 4086UDC     C744942  13.693   0.296   4.879  0.1182 -0.6320  0.9059
 4086UDC     C844943  13.715   0.442   4.842  0.7736 -0.7919 -0.1494
 4086UDC     C944944  13.816   0.460   4.728  0.6866  1.0042  0.0314
 4086UDC    C1044945  13.830   0.602   4.675 -0.4092  0.4798  0.1354
 4086UDC    C1144946  13.954   0.626   4.592  0.9211 -0.0449  0.7121
 4087UDC     C144947  15.494  10.519   5.904 -0.1004 -0.7860 -0.9958
 4087UDC     C244948  15.626  10.494   5.819  0.3836  0.5076  0.4421
 4087UDC     C344949  15.650  10.583   5.694  0.8618 -1.2234 -0.2691
 4087UDC     C444950  15.632  10.738   5.706  0.2125  0.1915  0.0906
 4087UDC     C544951  15.567  10.827   5.598 -0.1828  0.2916  1.1922
 4087UDC     C644952  15.576  10.981   5.610  0.2032 -0.8253 -0.5064
 4087UDC     C744953  15.515  11.030   5.740 -0.0794 -0.0069  2.0021
 4087UDC     C844954  15.475  11.175   5.762  0.0828 -0.1789  0.5490
 4087UDC     C944955  15.345  11.184   5.845 -0.5744  0.1715 -0.7018
 4087UDC    C1044956  15.343  11.142   5.994 -0.9395 -0.4244  0.5360
 4087UDC    C1144957  15.213  11.092   6.069  0.5606  0.4063 -1.1032
 4088UDC     C144958   6.917  10.599  10.768 -0.1956 -0.1385  0.3881
 4088UDC     C244959   6.925  10.462  10.838  0.0116  0.7503  1.2584
 4088UDC     C344960   6.973  10.470  10.982  1.0488  0.6433  0.5362
 4088UDC     C444961   6.911  10.561  11.085 -0.3968  0.0459  0.0507
 4088UDC     C544962   6.930  10.531  11.237 -0.2601  0.1212 -0.1701
 4088UDC     C644963   6.882  10.638  11.334 -0.3124 -0.7003 -0.6753
 4088UDC     C744964   6.874  10.770  11.267 -0.3376 -1.4247  0.2415
 4088UDC     C844965   6.980  10.875  11.312  0.1223 -0.4430  0.3097
 4088UDC     C944966   6.902  11.008  11.324 -0.7124  0.8275 -0.5848
 4088UDC    C1044967   6.991  11.127  11.359 -0.3302 -0.3491  1.0454
 4088UDC    C1144968   6.897  11.258  11.366 -0.2023  0.6986  0.1417
 4089UDC     C144969  17.558  11.679  13.849 -0.0266 -0.1181  0.1589
 4089UDC     C244970  17.573  11.828  13.836 -1.2437  0.5031  1.7684
 4089UDC     C344971  17.639  11.873  13.963 -0.5868  0.3337  0.3301
 4089UDC     C444972  17.576  11.849  14.098  0.3172  0.5089 -0.1520
 4089UDC     C544973  17.442  11.917  14.124 -0.2316  0.1092  0.1867
 4089UDC     C644974  17.390  11.876  14.260  0.3567 -0.9051  0.2909
 4089UDC     C744975  17.316  11.741  14.253  0.2828  0.6059 -0.8879
 4089UDC     C844976  17.204  11.721  14.362  0.1740  0.1982 -0.5748
 4089UDC     C944977  17.101  11.825  14.363  1.2685  0.1440 -0.1921
 4089UDC    C1044978  16.962  11.778  14.419 -0.6802  0.0538  0.3292
 4089UDC    C1144979  16.864  11.899  14.425 -1.2156  0.0883  0.9751
 4090UDC     C144980   0.006  17.726  11.563 -2.0940  0.1960  0.4476
 4090UDC     C244981   0.075  17.825  11.658 -0.3793  0.3283 -0.8919
 4090UDC     C344982   0.043  17.822  11.810 -0.5618  0.0500  0.3536
 4090UDC     C444983  -0.101  17.780  11.838  0.4952 -0.6561  0.3045
 4090UDC     C544984  -0.129  17.792  11.992  0.6832 -0.1428 -0.2188
 4090UDC     C644985  -0.064  17.897  12.072 -0.9271 -1.3278 -0.0234
 4090UDC     C744986  -0.126  17.936  12.210  0.4274  0.1507 -0.3319
 4090UDC     C844987  -0.079  18.044  12.307 -0.8259  1.0335  1.2270
 4090UDC     C944988  -0.180  18.113  12.412 -0.1570  0.0066 -0.2493
 4090UDC    C1044989  -0.251  18.000  12.492  0.6369 -0.3292 -0.9750
 4090UDC    C1144990  -0.382  18.064  12.544 -0.4178 -0.9199  0.8336
 4091UDC     C144991   5.593  13.798   8.898  0.5126  0.6430 -0.2456
 4091UDC     C244992   5.460  13.723   8.941 -1.1335 -0.5655 -0.0684
 4091UDC     C344993   5.347  13.730   8.839  0.1982 -0.0433  0.5266
 4091UDC     C444994   5.285  13.874   8.835  0.1055  0.4392  0.3447
 4091UDC     C544995   5.173  13.880   8.721  0.3242 -0.2453  0.9548
 4091UDC     C644996   5.180  13.771   8.613 -0.2517 -0.2369  0.0939
 4091UDC     C744997   5.232  13.796   8.472 -0.2037 -1.0496  0.6341
 4091UDC     C844998   5.383  13.801   8.456 -0.9035  0.2553  0.5617
 4091UDC     C944999   5.454  13.665   8.502  0.2459 -0.4863  0.2182
 4091UDC    C1045000   5.601  13.685   8.530 -0.3882 -1.1029  0.3703
 4091UDC    C1145001   5.667  13.560   8.578  0.0546  0.7180 -0.1011
 4092UDC     C145002  12.057   1.604   5.412  0.6251 -0.3209 -0.0902
 4092UDC     C245003  11.989   1.560   5.282 -0.2254 -1.2847  0.2636
 4092UDC     C345004  11.845   1.600   5.268  0.6826  0.1904  0.3419
 4092UDC     C445005  11.811   1.739   5.212 -0.8142 -0.0063  0.0980
 4092UDC     C545006  11.671   1.779   5.154 -0.4895  0.0418  1.2410
 4092UDC     C645007  11.572   1.806   5.262 -0.4731  0.6606 -0.4110
 4092UDC     C745008  11.436   1.808   5.204  0.2878 -0.8163  0.0124
 4092UDC     C845009  11.368   1.675   5.250  0.1437 -0.4549  0.6077
 4092UDC     C945010  11.330   1.690   5.394 -0.0511  0.8401 -0.5305
 4092UDC    C1045011  11.259   1.568   5.454 -0.3794  0.6227 -0.7893
 4092UDC    C1145012  11.106   1.548   5.421  0.3110  0.2246  0.3397
 4093UDC     C145013   7.229   9.443   1.065  0.2290  0.3553  0.7630
 4093UDC     C245014   7.239   9.336   0.950  0.5743 -0.1515  0.0398
 4093UDC     C345015   7.331   9.409   0.851 -0.2092 -0.3346 -0.7196
 4093UDC     C445016   7.360   9.338   0.722  0.3231  0.7498 -0.2669
 4093UDC     C545017   7.256   9.227   0.690  0.4130 -0.0209  0.2760
 4093UDC     C645018   7.305   9.157   0.570 -0.2790  0.7825  0.0029
 4093UDC     C745019   7.346   9.238   0.443  0.4791 -0.2610 -0.0674
 4093UDC     C845020   7.333   9.181   0.300  0.3075 -0.2663 -0.3003
 4093UDC     C945021   7.327   9.293   0.196  1.2839 -0.6337 -0.9006
 4093UDC    C1045022   7.458   9.371   0.207 -1.1509  0.3022  1.0415
 4093UDC    C1145023   7.458   9.471   0.089  0.3069  0.5500 -0.0332
 4094UDC     C145024   4.413  18.341  15.197  0.8655 -1.2799 -1.2202
 4094UDC     C245025   4.326  18.445  15.272  0.6196 -0.2256 -0.1921
 4094UDC     C345026   4.219  18.525  15.197  0.2782 -0.6499 -0.0155
 4094UDC     C445027   4.188  18.625  15.310  0.5429  1.1615  1.2063
 4094UDC     C545028   4.068  18.697  15.260  0.4161  0.6113  0.0953
 4094UDC     C645029   3.929  18.644  15.278  0.2565 -0.8868 -0.4830
 4094UDC     C745030   3.817  18.695  15.182  0.0347 -0.1475 -0.1970
 4094UDC     C845031   3.670  18.697  15.219 -0.5270  0.1051 -0.9045
 4094UDC     C945032   3.590  18.582  15.290 -0.7336 -1.2351  0.7044
 4094UDC    C1045033   3.456  18.637  15.346 -0.6741 -0.7503 -0.7311
 4094UDC    C1145034   3.462  18.768  15.427  0.5716 -0.1633  0.6279
 4095UDC     C145035  12.145   9.865  19.885 -0.2866 -0.2788 -0.1436
 4095UDC     C245036  12.260   9.788  19.822  0.4255  1.3215  0.9118
 4095UDC     C345037  12.252   9.787  19.670  0.5839  0.3168 -0.0930
 4095UDC     C445038  12.347   9.683  19.621  1.2441  1.2256 -0.6902
 4095UDC     C545039  12.287   9.538  19.593  0.8838 -0.4438 -1.4219
 4095UDC     C645040  12.345   9.460  19.472  0.0135 -0.3054 -0.4831
 4095UDC     C745041  12.388   9.314  19.516 -1.0221  0.9237 -0.6133
 4095UDC     C845042  12.481   9.249  19.414  0.7959  0.8719 -1.1744
 4095UDC     C945043  12.426   9.266  19.272  0.4564  0.0683 -0.1828
 4095UDC    C1045044  12.342   9.164  19.210  0.5951  1.2770 -0.0804
 4095UDC    C1145045  12.306   9.195  19.064 -0.1192  0.2497 -0.0516
 4096UDC     C145046   4.241  15.118   6.670  0.7911 -0.2037  0.2444
 4096UDC     C245047   4.187  15.201   6.789  0.0833  0.1985  0.1689
 4096UDC     C345048   4.041  15.177   6.827  0.6181  0.6955  0.2018
 4096UDC     C445049   3.991  15.040   6.879 -0.2593 -0.6093  0.5331
 4096UDC     C545050   3.887  15.071   6.985 -1.0276 -0.0155  1.0074
 4096UDC     C645051   3.830  14.953   7.073 -0.5646  0.2393 -0.0143
 4096UDC     C745052   3.920  14.882   7.181  0.1003 -0.5839 -0.5545
 4096UDC     C845053   4.006  14.773   7.138  0.5030 -0.3854  0.4561
 4096UDC     C945054   4.056  14.709   7.273  0.7991 -0.4532  0.9485
 4096UDC    C1045055   4.141  14.586   7.250  0.6157  0.6791  1.3837
 4096UDC    C1145056   4.155  14.504   7.384  0.3093  0.9286  0.6345
 4097UDC     C145057  14.277  18.866  12.113  0.5762 -0.7185  0.2221
 4097UDC     C245058  14.354  18.991  12.162 -0.1146 -1.2730 -0.0487
 4097UDC     C345059  14.417  19.078  12.052  0.4630  0.3839  0.4673
 4097UDC     C445060  14.314  19.143  11.949 -0.0087 -0.1482  0.2561
 4097UDC     C545061  14.314  19.295  11.949  1.0925  0.2703  1.2695
 4097UDC     C645062  14.436  19.349  11.878  0.3490 -0.0674  0.4284
 4097UDC     C745063  14.416  19.479  11.796  0.0064 -0.4150  0.3721
 4097UDC     C845064  14.519  19.529  11.697 -0.1823  0.7892  0.2802
 4097UDC     C945065  14.494  19.678  11.658  0.4652  0.2852 -1.1374
 4097UDC    C1045066  14.351  19.718  11.618  0.0488 -0.0877  0.2293
 4097UDC    C1145067  14.340  19.871  11.653 -0.2559  0.7931  0.6573
 4098UDC     C145068   1.861   2.922   7.243 -0.6771 -1.1091  0.8314
 4098UDC     C245069   1.995   2.981   7.186 -0.6849  0.6238  1.6522
 4098UDC     C345070   2.009   3.044   7.046  0.5736  0.1251 -0.0609
 4098UDC     C445071   2.055   2.954   6.933 -0.4261  1.4309  0.1367
 4098UDC     C545072   2.161   2.989   6.831 -0.1410  0.1309 -0.0623
 4098UDC     C645073   2.173   3.147   6.798  0.9848 -0.0664  0.3957
 4098UDC     C745074   2.259   3.193   6.678 -0.9817  0.3560  0.1645
 4098UDC     C845075   2.276   3.348   6.688 -0.6533  0.5772  1.0656
 4098UDC     C945076   2.343   3.398   6.557  0.4594 -0.8320  0.0463
 4098UDC    C1045077   2.375   3.547   6.546 -0.1680  0.7906  0.4142
 4098UDC    C1145078   2.460   3.562   6.417  0.3045 -0.4238  0.4397
 4099UDC     C145079  13.921   0.096   6.582  0.9233  0.1625  0.0860
 4099UDC     C245080  13.949   0.024   6.448 -0.2081  0.7276 -0.0383
 4099UDC     C345081  13.863  -0.103   6.432 -0.0055 -0.1318 -0.0787
 4099UDC     C445082  13.941  -0.233   6.460  0.3761 -0.4766 -0.6918
 4099UDC     C545083  13.917  -0.276   6.607 -0.1052  0.5767 -0.9588
 4099UDC     C645084  13.976  -0.418   6.642  0.2885  1.3479  0.6546
 4099UDC     C745085  13.864  -0.526   6.599  0.6402 -1.3354  0.0981
 4099UDC     C845086  13.825  -0.543   6.449  0.5177  0.8120  0.0611
 4099UDC     C945087  13.718  -0.665   6.428  0.5538  0.5495  0.2337
 4099UDC    C1045088  13.633  -0.650   6.303 -0.6960  1.2518 -0.0135
 4099UDC    C1145089  13.673  -0.725   6.180  0.1732 -0.4555  0.6606
 4100UDC     C145090   2.250   8.999  15.673  0.4038  0.6303 -0.0661
 4100UDC     C245091   2.395   8.964  15.702 -0.0031  0.2670 -0.5260
 4100UDC     C345092   2.459   9.093  15.750 -0.2579 -0.5639  0.4512
 4100UDC     C445093   2.570   9.077  15.856 -0.0607  0.9395 -0.0039
 4100UDC     C545094   2.666   9.200  15.874 -0.0451 -0.0552  1.0750
 4100UDC     C645095   2.601   9.324  15.939 -0.7416 -0.1765 -0.1654
 4100UDC     C745096   2.540   9.288  16.079  0.8018 -1.0939  1.1662
 4100UDC     C845097   2.480   9.420  16.143 -0.3624 -0.3484  0.8276
 4100UDC     C945098   2.564   9.535  16.198  0.1397 -0.1743 -0.2894
 4100UDC    C1045099   2.606   9.539  16.349 -0.6826 -0.1183 -0.0858
 4100UDC    C1145100   2.760   9.497  16.354  0.5037 -1.2844  1.0845
 4101UDC     C145101  14.112   7.199  16.094 -1.3475  0.8201 -0.1990
 4101UDC     C245102  14.195   7.106  16.001 -0.1032 -0.4162 -0.4453
 4101UDC     C345103  14.155   7.058  15.859  0.4231  0.0541  0.2213
 4101UDC     C445104  14.281   6.998  15.798  0.0818  0.3944 -0.0201
 4101UDC     C545105  14.243   6.935  15.658  0.4200 -0.3427  0.4425
 4101UDC     C645106  14.367   6.897  15.567  0.0305 -0.5512 -0.4615
 4101UDC     C745107  14.338   6.793  15.459 -1.0768  0.3360  1.0499
 4101UDC     C845108  14.457   6.785  15.360  0.5695 -0.5907  0.1756
 4101UDC     C945109  14.579   6.714  15.411 -1.0096 -0.6632  0.5728
 4101UDC    C1045110  14.714   6.775  15.354  0.5777  0.7655  0.9859
 4101UDC    C1145111  14.742   6.912  15.407 -0.7837  0.1695  0.6325
 4102UDC     C145112  19.103   6.750  15.031  0.2886 -0.0707 -0.2440
 4102UDC     C245113  19.233   6.834  15.063 -0.8712  0.4683 -0.2576
 4102UDC     C345114  19.346   6.822  14.949  0.5171 -0.5175 -0.6215
 4102UDC     C445115  19.302   6.858  14.810 -0.0032 -0.4102  0.1725
 4102UDC     C545116  19.396   6.822  14.690  0.2972  0.2390 -0.6417
 4102UDC     C645117  19.538   6.874  14.698 -1.0131  0.1433  0.5037
 4102UDC     C745118  19.632   6.797  14.611  0.2084  0.7383  0.0990
 4102UDC     C845119  19.780   6.840  14.609  0.5099 -0.0783  0.6935
 4102UDC     C945120  19.833   6.820  14.750 -0.7831 -0.0702  0.4839
 4102UDC    C1045121  19.952   6.915  14.769 -0.9856  0.0473 -0.2867
 4102UDC    C1145122  20.012   6.923  14.908  0.1518 -0.0826 -0.1659
 4103UDC     C145123   4.207   9.763  15.887 -0.7451  0.2819 -0.3240
 4103UDC     C245124   4.231   9.700  16.023 -1.9058  0.1478 -0.2390
 4103UDC     C345125   4.263   9.560  15.975 -0.5317  1.7389  0.1860
 4103UDC     C445126   4.372   9.486  16.058 -0.1963 -0.7395  0.0763
 4103UDC     C545127   4.324   9.498  16.202 -0.3386  0.4436 -0.5079
 4103UDC     C645128   4.407   9.434  16.309  0.2673  0.1110  0.0777
 4103UDC     C745129   4.421   9.284  16.281 -0.1134  0.3692 -0.0897
 4103UDC     C845130   4.490   9.188  16.374 -0.8010  0.2125  0.2519
 4103UDC     C945131   4.399   9.114  16.475  0.7102 -0.4756 -0.2943
 4103UDC    C1045132   4.448   8.990  16.561  0.2766  1.0186 -0.5713
 4103UDC    C1145133   4.567   9.052  16.637  0.1339 -0.7800  0.0613
 4104UDC     C145134   7.848   9.216  11.880 -0.5609 -0.5825 -0.2402
 4104UDC     C245135   7.846   9.127  12.008  0.2888  0.0421  1.0360
 4104UDC     C345136   7.811   8.978  12.011 -0.6012  0.2845  0.4174
 4104UDC     C445137   7.760   8.934  12.153  0.2144  1.5834  0.0856
 4104UDC     C545138   7.864   8.946  12.259  0.2171  0.2627  0.0645
 4104UDC     C645139   7.840   8.859  12.386 -0.3449 -1.0823  0.1143
 4104UDC     C745140   7.919   8.729  12.416  0.1639 -1.2164  0.5258
 4104UDC     C845141   7.935   8.627  12.296  1.0996  0.6220  0.1626
 4104UDC     C945142   7.977   8.490  12.328 -0.4189  0.0174 -0.0041
 4104UDC    C1045143   8.121   8.475  12.349 -0.5626  0.3012  0.0325
 4104UDC    C1145144   8.156   8.494  12.496 -0.0852  0.4748  0.2887
 4105UDC     C145145  14.062   4.383   2.818 -0.8973  0.4353  0.4347
 4105UDC     C245146  14.218   4.407   2.804  0.6263 -0.2296  0.6534
 4105UDC     C345147  14.255   4.543   2.739  0.4569 -0.1791 -0.2427
 4105UDC     C445148  14.352   4.558   2.624 -0.0644 -1.0988  0.7841
 4105UDC     C545149  14.370   4.702   2.572  0.0747 -0.2518  0.9229
 4105UDC     C645150  14.241   4.778   2.527 -0.4937  0.6011  0.0026
 4105UDC     C745151  14.270   4.916   2.451  1.6676  0.3773 -0.7871
 4105UDC     C845152  14.155   4.967   2.349 -0.2979 -1.5168  0.1816
 4105UDC     C945153  14.000   4.960   2.375  0.5979 -0.5304  1.1255
 4105UDC    C1045154  13.933   5.025   2.497 -1.2430 -0.0540  1.1229
 4105UDC    C1145155  13.787   5.000   2.480  0.3757 -0.6409  0.9976
 4106UDC     C145156   8.138   1.819  19.781  0.4833  0.0032 -0.8614
 4106UDC     C245157   8.227   1.714  19.836  0.9041  0.0190 -0.7787
 4106UDC     C345158   8.146   1.580  19.833  1.0779 -0.3209  0.1909
 4106UDC     C445159   8.235   1.462  19.867  1.1163  0.7229  0.3656
 4106UDC     C545160   8.340   1.383  19.776  0.3000 -0.0976 -0.2929
 4106UDC     C645161   8.272   1.306  19.658  0.6815  0.0453 -1.2592
 4106UDC     C745162   8.218   1.166  19.711  0.4319  0.0498  0.6709
 4106UDC     C845163   8.345   1.097  19.766  0.3988  0.2748  0.3548
 4106UDC     C945164   8.339   0.951  19.799 -0.3544 -0.6814 -0.7599
 4106UDC    C1045165   8.480   0.894  19.822 -0.1800  0.1766  0.2548
 4106UDC    C1145166   8.479   0.743  19.856 -0.9867  0.5500  0.2683
 4107UDC     C145167  11.169  13.524   8.629 -0.0005 -0.5941 -0.2338
 4107UDC     C245168  11.017  13.525   8.594 -0.1116 -0.2887  0.5258
 4107UDC     C345169  10.918  13.546   8.710  1.2221  0.0203 -0.8179
 4107UDC     C445170  10.772  13.530   8.660  0.9314  0.8922  0.6111
 4107UDC     C545171  10.759  13.588   8.521 -1.7977  0.3954 -0.0739
 4107UDC     C645172  10.626  13.592   8.455  0.8153  0.4087  0.0697
 4107UDC     C745173  10.620  13.692   8.347 -0.5748  0.6699 -0.0516
 4107UDC     C845174  10.553  13.639   8.225  0.6751 -0.1377  0.3325
 4107UDC     C945175  10.521  13.759   8.132  0.9079 -0.2494  0.0681
 4107UDC    C1045176  10.446  13.741   7.993 -0.5892  0.1452  0.0140
 4107UDC    C1145177  10.505  13.627   7.917 -0.1752 -0.6859  0.4169
 4108UDC     C145178  11.319   6.960  18.162 -0.9440  0.4928  0.2563
 4108UDC     C245179  11.362   6.934  18.310  1.1003  0.1558  0.0538
 4108UDC     C345180  11.276   6.836  18.392  0.8130  0.5233  0.4448
 4108UDC     C445181  11.318   6.821  18.542  0.0686 -0.7346 -0.1842
 4108UDC     C545182  11.321   6.952  18.623 -1.8220 -0.1331  0.8233
 4108UDC     C645183  11.186   7.031  18.615  0.3074 -0.2523  0.0503
 4108UDC     C745184  11.148   7.128  18.739 -0.1536  0.5739  0.6277
 4108UDC     C845185  11.019   7.207  18.725 -1.0196  0.1904 -0.5665
 4108UDC     C945186  10.882   7.141  18.733  1.1247  0.5972  0.2863
 4108UDC    C1045187  10.838   7.065  18.607 -0.1945 -0.1088 -0.7638
 4108UDC    C1145188  10.692   7.038  18.584  0.2975 -0.3897 -0.6692
 4109UDC     C145189  18.173  19.703  14.285  0.3019 -0.2341  0.1183
 4109UDC     C245190  18.166  19.547  14.316  0.3967 -0.6534  0.5733
 4109UDC     C345191  18.224  19.448  14.212 -0.4514  0.5243  0.0717
 4109UDC     C445192  18.222  19.315  14.277  0.7392 -0.3056 -0.3545
 4109UDC     C545193  18.357  19.306  14.345 -0.3795 -1.0492 -1.0293
 4109UDC     C645194  18.359  19.207  14.468  0.6876  0.7019  0.4716
 4109UDC     C745195  18.503  19.160  14.491  0.1766 -0.1513 -0.4398
 4109UDC     C845196  18.547  19.108  14.633 -1.6742 -0.8653  0.2672
 4109UDC     C945197  18.609  19.219  14.722  0.6206  0.4193  0.0821
 4109UDC    C1045198  18.720  19.180  14.825 -0.5935 -0.0302  0.2031
 4109UDC    C1145199  18.654  19.091  14.941 -0.1007 -0.9388  0.4320
 4110UDC     C145200   3.328  12.981   1.418 -0.1263 -0.8071  0.3548
 4110UDC     C245201   3.242  12.881   1.344 -0.1484  0.2736  0.1052
 4110UDC     C345202   3.261  12.733   1.364  0.2852  0.3712  1.0092
 4110UDC     C445203   3.152  12.640   1.318 -0.0178  0.9321  0.2746
 4110UDC     C545204   3.208  12.497   1.346  0.3160 -0.6117 -0.6172
 4110UDC     C645205   3.236  12.488   1.500 -0.8705 -1.0413 -0.5226
 4110UDC     C745206   3.284  12.344   1.517  0.2978 -0.6248 -0.1747
 4110UDC     C845207   3.353  12.332   1.650 -0.1377  0.1484 -0.4960
 4110UDC     C945208   3.482  12.241   1.653  0.5878 -1.5424  0.3632
 4110UDC    C1045209   3.610  12.291   1.729  0.8416 -0.5363 -0.6516
 4110UDC    C1145210   3.694  12.406   1.656  0.1606  0.3934 -0.0569
 4111UDC     C145211   9.023  15.466  19.724  0.8675  0.3890 -0.7317
 4111UDC     C245212   9.057  15.357  19.622  0.1654  0.1745  0.4672
 4111UDC     C345213   9.058  15.208  19.665 -0.6382 -0.0147  0.2499
 4111UDC     C445214   8.979  15.119  19.565 -0.2309 -0.4037 -0.0686
 4111UDC     C545215   9.039  15.117  19.421  0.5905 -0.7125  0.3379
 4111UDC     C645216   9.182  15.058  19.403  0.0833  0.0300  1.4519
 4111UDC     C745217   9.191  14.907  19.375 -1.1085 -0.6849  1.2340
 4111UDC     C845218   9.291  14.857  19.257 -0.3612  0.3993 -0.5929
 4111UDC     C945219   9.440  14.897  19.265  0.3597 -0.3643  0.2408
 4111UDC    C1045220   9.532  14.885  19.145  0.1227 -0.0501  0.6469
 4111UDC    C1145221   9.524  14.743  19.086 -0.5433 -0.0307 -0.5009
 4112UDC     C145222  11.324  16.768  13.496  0.5711 -0.0435  0.3204
 4112UDC     C245223  11.295  16.877  13.600 -0.6236 -0.7614 -0.5406
 4112UDC     C345224  11.235  16.840  13.735 -1.2434  0.0749 -0.1865
 4112UDC     C445225  11.087  16.819  13.727  0.6006 -0.0924  0.2619
 4112UDC     C545226  11.030  16.801  13.864 -0.3565 -0.0523  0.2250
 4112UDC     C645227  11.057  16.916  13.964  0.4393  0.0059 -0.1040
 4112UDC     C745228  11.018  16.872  14.103  0.9371  0.2321 -0.3976
 4112UDC     C845229  11.012  16.995  14.200  0.4986 -0.6404 -0.1116
 4112UDC     C945230  11.023  17.129  14.128  0.8353  0.2125 -0.6947
 4112UDC    C1045231  10.996  17.243  14.226 -0.1794  0.3988  0.2811
 4112UDC    C1145232  11.096  17.258  14.335  0.1325 -0.5481  0.4794
 4113UDC     C145233  12.759  14.298   8.059  0.0106 -0.2043 -0.7090
 4113UDC     C245234  12.878  14.287   8.160 -0.8088 -0.5537  0.4556
 4113UDC     C345235  12.915  14.152   8.212 -0.2339  0.1685 -0.7411
 4113UDC     C445236  12.837  14.137   8.346  0.1475 -0.8756  0.4723
 4113UDC     C545237  12.834  13.995   8.392 -0.7434 -0.2841 -0.5049
 4113UDC     C645238  12.771  13.987   8.527 -0.7792 -0.3692  0.2356
 4113UDC     C745239  12.616  13.976   8.517 -0.8009 -0.0447  0.3112
 4113UDC     C845240  12.547  13.975   8.659  0.3187 -0.4633 -0.6893
 4113UDC     C945241  12.551  14.111   8.729  0.8031 -0.0664 -0.6592
 4113UDC    C1045242  12.438  14.142   8.829  0.6586  0.3535  0.1767
 4113UDC    C1145243  12.440  14.293   8.858  0.0524  1.1261 -0.5517
 4114UDC     C145244   5.979  10.403   2.587 -0.7429 -0.6808 -0.5025
 4114UDC     C245245   6.090  10.310   2.532 -0.0210  0.3589  0.4635
 4114UDC     C345246   6.146  10.202   2.615 -0.0782  0.8498 -0.4242
 4114UDC     C445247   6.214  10.244   2.751  0.3158  0.4726 -0.5810
 4114UDC     C545248   6.352  10.298   2.749  1.0053  0.1031  0.8932
 4114UDC     C645249   6.451  10.202   2.687 -0.3851  0.6515 -0.4104
 4114UDC     C745250   6.587  10.262   2.653  0.4868  0.4227 -0.0216
 4114UDC     C845251   6.659  10.346   2.762  0.0208 -0.2469 -0.6262
 4114UDC     C945252   6.647  10.500   2.750 -0.6725 -1.3606  0.2628
 4114UDC    C1045253   6.734  10.572   2.640 -0.1970  0.3299 -0.4737
 4114UDC    C1145254   6.696  10.712   2.599  0.4163  0.0604  0.1322
 4115UDC     C145255   8.562   5.720  10.397  0.4947  0.4787  0.0574
 4115UDC     C245256   8.444   5.722  10.500  0.0348 -0.3346  0.8745
 4115UDC     C345257   8.363   5.845  10.551  0.8512 -0.2278  0.1072
 4115UDC     C445258   8.445   5.926  10.657 -0.7173 -0.9542  0.0870
 4115UDC     C545259   8.372   6.035  10.740  0.7061 -0.1692 -1.3862
 4115UDC     C645260   8.312   6.140  10.647 -0.1290 -0.1906  0.9827
 4115UDC     C745261   8.215   6.231  10.715  0.7368 -0.7912 -0.8498
 4115UDC     C845262   8.214   6.360  10.630  0.3695 -0.1067 -0.0353
 4115UDC     C945263   8.173   6.339  10.483 -0.8441 -0.0469  0.3278
 4115UDC    C1045264   8.159   6.477  10.413 -0.5501 -0.1170 -0.2512
 4115UDC    C1145265   8.090   6.443  10.287 -0.0920  0.2632  1.3016
 4116UDC     C145266   6.415  17.873  17.435  0.1824  0.1574 -0.0897
 4116UDC     C245267   6.386  17.786  17.313 -0.4181  0.8715 -0.7963
 4116UDC     C345268   6.393  17.858  17.172 -0.0389  1.0963  0.8597
 4116UDC     C445269   6.290  17.977  17.175 -0.9005  0.7218 -0.6694
 4116UDC     C545270   6.322  18.108  17.113  0.2403 -0.4604 -0.1620
 4116UDC     C645271   6.420  18.192  17.200 -0.5543 -0.5090  1.1020
 4116UDC     C745272   6.526  18.245  17.109 -0.8317 -0.2734  0.2205
 4116UDC     C845273   6.635  18.164  17.036 -0.5751  0.1585 -0.0826
 4116UDC     C945274   6.771  18.229  17.028  0.1747 -0.4741  0.8013
 4116UDC    C1045275   6.882  18.136  16.977 -0.2308 -0.1416  0.4129
 4116UDC    C1145276   7.011  18.222  16.946 -0.0580  0.2313 -0.3607
 4117UDC     C145277  13.880  19.289   5.426 -0.0779  0.2300 -0.2452
 4117UDC     C245278  13.927  19.171   5.506  0.0909 -0.2380 -1.0138
 4117UDC     C345279  13.829  19.060   5.515  0.5812  0.6803  0.2808
 4117UDC     C445280  13.751  19.044   5.383 -0.9814 -0.6854 -0.2526
 4117UDC     C545281  13.626  18.959   5.399  0.8726  0.0611  0.6464
 4117UDC     C645282  13.587  18.889   5.270  0.4427 -0.2696 -0.6960
 4117UDC     C745283  13.448  18.818   5.256  0.1017 -0.0436 -0.3651
 4117UDC     C845284  13.409  18.738   5.133 -0.8008  1.5495  0.2048
 4117UDC     C945285  13.375  18.824   5.011 -0.5982 -0.7616 -1.1804
 4117UDC    C1045286  13.434  18.814   4.863 -0.5722  0.2397 -0.2976
 4117UDC    C1145287  13.419  18.671   4.810 -0.7323 -0.4537 -0.5326
 4118UDC     C145288   1.316  17.321  19.405  0.2432  0.2006 -0.1100
 4118UDC     C245289   1.293  17.465  19.411 -0.4083 -0.0168 -0.2135
 4118UDC     C345290   1.208  17.529  19.305 -0.3685 -0.1796 -0.2311
 4118UDC     C445291   1.213  17.683  19.313  0.2216 -0.9464 -0.4260
 4118UDC     C545292   1.258  17.776  19.192  0.4230  0.2295 -0.2499
 4118UDC     C645293   1.265  17.928  19.222 -0.2260 -0.9949  0.0813
 4118UDC     C745294   1.241  18.003  19.087  0.0734 -0.3211  0.0077
 4118UDC     C845295   1.275  18.151  19.104 -0.2222 -1.8253 -0.5983
 4118UDC     C945296   1.429  18.171  19.102  0.2050  0.0237 -0.5794
 4118UDC    C1045297   1.454  18.317  19.054  0.1179 -1.4523  0.5964
 4118UDC    C1145298   1.427  18.409  19.170 -0.2904 -0.2681 -0.1193
 4119UDC     C145299   2.125   3.728  17.320 -0.5930  0.3692 -1.1825
 4119UDC     C245300   2.114   3.874  17.268  0.5095 -0.1402  0.7510
 4119UDC     C345301   1.971   3.918  17.273 -0.5180 -0.0647  0.6830
 4119UDC     C445302   1.877   3.796  17.281  0.5363 -0.3811  0.3333
 4119UDC     C545303   1.744   3.853  17.270  0.2959  0.3618 -0.6032
 4119UDC     C645304   1.656   3.773  17.163 -0.0953 -0.9295  0.4361
 4119UDC     C745305   1.629   3.630  17.195 -0.4342 -0.3667  0.7192
 4119UDC     C845306   1.479   3.584  17.171 -0.9918  0.2031 -0.4755
 4119UDC     C945307   1.440   3.433  17.216 -0.4019 -0.5224 -1.3277
 4119UDC    C1045308   1.287   3.422  17.243 -0.0374  0.2113  0.3018
 4119UDC    C1145309   1.190   3.488  17.146  0.2412  0.2215  0.3238
 4120UDC     C145310   8.421  19.938   5.225 -0.3235  0.6032 -0.1378
 4120UDC     C245311   8.455  20.013   5.348 -0.1579 -0.0883 -0.7131
 4120UDC     C345312   8.503  20.152   5.310  0.3792  0.0110 -0.1332
 4120UDC     C445313   8.405  20.257   5.282  1.5968 -0.9394 -0.3799
 4120UDC     C545314   8.443  20.375   5.197 -0.8632  0.9287  0.4660
 4120UDC     C645315   8.326  20.437   5.112 -0.0181 -0.7067 -0.1802
 4120UDC     C745316   8.251  20.518   5.211  0.0058 -1.0132  0.3080
 4120UDC     C845317   8.156  20.629   5.143 -0.4684  0.5872 -0.4906
 4120UDC     C945318   8.232  20.748   5.097  0.8545 -0.3896 -0.0119
 4120UDC    C1045319   8.220  20.836   5.220  0.7678 -0.3294  0.2985
 4120UDC    C1145320   8.340  20.920   5.263 -0.7587 -0.1103  0.1133
 4121UDC     C145321   4.167  14.717  13.172 -0.4362 -0.5928  0.7652
 4121UDC     C245322   4.319  14.714  13.135 -0.2245  0.3682 -0.0750
 4121UDC     C345323   4.399  14.691  13.267 -0.3656  0.1478 -0.3748
 4121UDC     C445324   4.551  14.673  13.265  0.5777 -0.2876 -0.4067
 4121UDC     C545325   4.578  14.554  13.168  0.4814  0.3328 -0.0686
 4121UDC     C645326   4.709  14.548  13.089 -0.6347  0.6871  0.5875
 4121UDC     C745327   4.828  14.483  13.161  0.2751 -0.3017  0.4476
 4121UDC     C845328   4.945  14.546  13.082 -0.3163  0.9089 -0.2228
 4121UDC     C945329   5.088  14.538  13.149  0.2173  0.1530 -0.4202
 4121UDC    C1045330   5.064  14.560  13.299  0.0543  0.0946 -0.1876
 4121UDC    C1145331   5.189  14.555  13.394  0.9990 -0.2904 -0.9155
 4122UDC     C145332   7.733   5.068  18.652  0.9682 -0.1666  0.0675
 4122UDC     C245333   7.676   5.145  18.527  0.1171  0.0381  0.5335
 4122UDC     C345334   7.723   5.100  18.383 -0.5607  0.3594 -0.6897
 4122UDC     C445335   7.676   5.178  18.257  0.3701 -0.2643  0.3755
 4122UDC     C545336   7.530   5.143  18.234  0.1556  0.1596  0.2099
 4122UDC     C645337   7.450   5.230  18.131 -0.0371  1.0217  0.0252
 4122UDC     C745338   7.302   5.225  18.175 -0.2416  0.1478  0.1906
 4122UDC     C845339   7.238   5.083  18.161 -0.8115  0.0379 -1.4437
 4122UDC     C945340   7.094   5.079  18.213 -0.2876 -0.3582 -0.7149
 4122UDC    C1045341   7.019   4.955  18.176 -0.0871  0.4424 -0.2282
 4122UDC    C1145342   7.033   4.907  18.023 -0.0528  0.6447  0.0590
 4123UDC     C145343  19.661  18.478   1.919  0.1750 -0.7482 -0.2810
 4123UDC     C245344  19.577  18.606   1.911 -0.6355 -0.7911  0.5251
 4123UDC     C345345  19.587  18.684   2.043 -0.5646  0.4978  0.5879
 4123UDC     C445346  19.737  18.682   2.088 -0.3317  0.1433  0.2606
 4123UDC     C545347  19.775  18.756   2.218 -0.1022 -0.3595  0.4619
 4123UDC     C645348  19.753  18.904   2.197 -0.6301 -0.4946 -0.0042
 4123UDC     C745349  19.854  18.990   2.115  0.2994 -0.0372  0.3631
 4123UDC     C845350  19.837  19.147   2.125 -0.4805 -1.0804  0.7747
 4123UDC     C945351  19.943  19.213   2.035  0.8110  0.9489  0.5976
 4123UDC    C1045352  20.080  19.163   2.086  0.5538 -0.0679  1.5709
 4123UDC    C1145353  20.177  19.248   2.004  0.2724 -0.6315  0.1890
 4124UDC     C145354  15.671  15.358   2.238 -0.4171  0.1964  0.8478
 4124UDC     C245355  15.820  15.361   2.248  0.0531 -0.2742  0.2439
 4124UDC     C345356  15.908  15.271   2.333  0.3726 -0.8346 -0.3306
 4124UDC     C445357  16.056  15.308   2.357 -0.6977  0.1936 -1.1112
 4124UDC     C545358  16.129  15.216   2.461  0.3090  0.4683  0.7253
 4124UDC     C645359  16.269  15.202   2.401  0.8047 -0.4645  0.2379
 4124UDC     C745360  16.379  15.150   2.492  0.2126  1.0652 -0.5963
 4124UDC     C845361  16.403  15.239   2.612  1.0650 -0.2061 -0.1406
 4124UDC     C945362  16.505  15.167   2.701  0.2312  0.9441  0.5893
 4124UDC    C1045363  16.521  15.230   2.839 -0.4507 -0.1944  0.8124
 4124UDC    C1145364  16.416  15.180   2.941  0.0351 -0.0670  0.3830
 4125UDC     C145365  17.335  11.098   0.809  0.2322  0.5817 -0.3738
 4125UDC     C245366  17.446  10.989   0.845 -0.0765 -1.0357  1.0120
 4125UDC     C345367  17.517  10.942   0.713  0.5196  0.8624  0.7374
 4125UDC     C445368  17.662  10.905   0.717 -0.2634  0.5919  0.1435
 4125UDC     C545369  17.743  11.010   0.797 -0.8576 -0.1508  0.2970
 4125UDC     C645370  17.882  10.960   0.828 -0.3016  0.7824  0.6568
 4125UDC     C745371  17.972  11.071   0.896 -1.1758  1.0566  0.2819
 4125UDC     C845372  18.015  11.173   0.789  0.6375  0.5216  0.3722
 4125UDC     C945373  18.080  11.289   0.867  0.2925 -1.0263  0.3069
 4125UDC    C1045374  18.093  11.416   0.777 -1.0319  0.1941 -1.7483
 4125UDC    C1145375  18.214  11.488   0.841  0.2573  0.0369 -0.5835
 4126UDC     C145376   7.399   8.327  18.284 -0.4109  0.5252 -0.1311
 4126UDC     C245377   7.285   8.291  18.189  0.7148 -0.1678  0.0666
 4126UDC     C345378   7.214   8.158  18.219  1.1182 -0.6622  0.0761
 4126UDC     C445379   7.114   8.208  18.330 -0.4920  0.0361 -0.1732
 4126UDC     C545380   7.008   8.102  18.367  0.2234  1.4120  1.0648
 4126UDC     C645381   6.885   8.143  18.433  0.9665  0.2018 -0.0224
 4126UDC     C745382   6.792   8.195  18.320 -0.3514  0.3976  0.3867
 4126UDC     C845383   6.653   8.260  18.352 -1.1455 -0.1765 -0.0920
 4126UDC     C945384   6.574   8.285  18.225  0.8892  0.3818  0.0029
 4126UDC    C1045385   6.493   8.417  18.266  0.1878  0.0318  0.3045
 4126UDC    C1145386   6.346   8.440  18.227 -0.6256 -0.4055  1.4167
 4127UDC     C145387  11.016  10.399  15.860  0.0120 -0.5185  0.6337
 4127UDC     C245388  11.070  10.353  16.000 -0.5771  0.6487 -0.9168
 4127UDC     C345389  11.177  10.443  16.059  0.4717 -0.2091  1.0283
 4127UDC     C445390  11.235  10.430  16.198 -0.1610  0.6114 -0.0713
 4127UDC     C545391  11.356  10.523  16.215 -0.6358 -1.4678 -0.0201
 4127UDC     C645392  11.328  10.665  16.264  0.3981  0.1525 -0.1425
 4127UDC     C745393  11.456  10.730  16.325 -0.5570  0.0738  0.2652
 4127UDC     C845394  11.485  10.668  16.467  0.3320 -0.8943 -0.1489
 4127UDC     C945395  11.624  10.700  16.518  0.1250  0.3508 -0.7132
 4127UDC    C1045396  11.690  10.597  16.610 -0.3772  0.4533 -0.4011
 4127UDC    C1145397  11.837  10.618  16.620  0.0247 -0.2599 -0.6704
 4128UDC     C145398   9.838  19.398  19.517 -0.4240 -0.5542 -0.2722
 4128UDC     C245399   9.857  19.279  19.419  0.5824  0.1666 -0.7897
 4128UDC     C345400   9.962  19.170  19.450 -0.6912 -0.2598 -0.6929
 4128UDC     C445401   9.972  19.149  19.601 -0.3672  0.5669 -0.4096
 4128UDC     C545402   9.997  19.005  19.646 -0.2295  0.1384 -0.0478
 4128UDC     C645403   9.886  18.901  19.658 -0.4696  0.4240 -1.0771
 4128UDC     C745404   9.771  18.927  19.761 -0.2085  1.0582 -0.7817
 4128UDC     C845405   9.652  18.832  19.760  0.9254 -0.0642 -1.0271
 4128UDC     C945406   9.538  18.875  19.864  0.0439  0.0573  0.5265
 4128UDC    C1045407   9.468  18.997  19.805  0.3166 -1.6283  0.9781
 4128UDC    C1145408   9.350  19.054  19.890 -0.0953  0.1396 -0.1015
 4129UDC     C145409   0.233   2.550  16.858 -0.4513 -1.3329 -0.0801
 4129UDC     C245410   0.199   2.695  16.835 -0.9433 -1.2671  0.2591
 4129UDC     C345411   0.308   2.765  16.743 -0.9499  0.2364  0.2539
 4129UDC     C445412   0.277   2.910  16.714  0.6634 -1.8970 -0.1954
 4129UDC     C545413   0.405   2.990  16.663  0.3179  0.0062  0.1426
 4129UDC     C645414   0.357   3.134  16.677 -0.3150 -0.1810 -1.1251
 4129UDC     C745415   0.482   3.221  16.714 -0.4944 -0.1988  0.3034
 4129UDC     C845416   0.465   3.377  16.712  1.3170  0.6700  0.4744
 4129UDC     C945417   0.582   3.468  16.759  0.1074  0.3406  0.3403
 4129UDC    C1045418   0.537   3.610  16.784 -0.7977 -0.2148  0.6028
 4129UDC    C1145419   0.498   3.692  16.655  0.7068 -0.0940 -1.0157
 4130UDC     C145420  17.945  13.623  18.603 -0.3848  0.4459  0.3848
 4130UDC     C245421  17.977  13.738  18.504 -0.0538 -0.1641  0.3396
 4130UDC     C345422  17.940  13.708  18.362  1.0436 -0.7238 -0.4277
 4130UDC     C445423  18.013  13.594  18.294 -0.2606  1.0431 -0.3711
 4130UDC     C545424  18.158  13.622  18.285 -0.0290  1.2055  0.3354
 4130UDC     C645425  18.201  13.743  18.196 -0.8065  0.8234 -0.7371
 4130UDC     C745426  18.149  13.740  18.052 -0.9980 -0.8510 -0.8263
 4130UDC     C845427  18.153  13.876  17.976 -0.3906  0.9449 -0.7930
 4130UDC     C945428  18.229  13.849  17.844  0.5899 -0.1533 -0.0331
 4130UDC    C1045429  18.258  13.982  17.774  0.7889  0.4847  1.0045
 4130UDC    C1145430  18.378  14.062  17.822 -0.2488 -0.0430  0.2767
 4131UDC     C145431  19.052  19.018   2.952 -0.4843 -0.4521  0.9058
 4131UDC     C245432  19.197  18.970   3.004 -0.0428  0.5262 -0.1074
 4131UDC     C345433  19.315  18.958   2.892 -1.1953  0.4265 -0.4940
 4131UDC     C445434  19.456  18.932   2.958  0.1235 -0.3684 -1.2985
 4131UDC     C545435  19.468  18.856   3.091 -0.4575  0.9619 -0.0191
 4131UDC     C645436  19.542  18.727   3.049 -0.5407 -1.2768  0.1990
 4131UDC     C745437  19.450  18.628   2.997  0.2891  0.4079 -1.6692
 4131UDC     C845438  19.526  18.489   3.002  0.1252 -0.7982 -0.0830
 4131UDC     C945439  19.675  18.494   2.954 -0.0382  0.1106  0.0126
 4131UDC    C1045440  19.723  18.349   2.924  0.0202  0.8946  0.0510
 4131UDC    C1145441  19.862  18.298   2.957 -0.6125 -0.4175 -0.6060
 4132UDC     C145442  14.691   8.737  10.511 -0.6623 -0.0648  0.1687
 4132UDC     C245443  14.565   8.813  10.542 -0.1585 -0.6359 -0.5196
 4132UDC     C345444  14.434   8.756  10.482 -0.8556 -0.3678  0.3571
 4132UDC     C445445  14.324   8.825  10.568  0.4448  0.2047  0.6430
 4132UDC     C545446  14.181   8.768  10.567  0.3289  1.0419 -0.0743
 4132UDC     C645447  14.068   8.842  10.637 -0.7260  0.2229 -0.0664
 4132UDC     C745448  14.093   8.829  10.789  0.4094 -2.2468 -0.3802
 4132UDC     C845449  13.969   8.884  10.870 -1.0259  0.5722  1.0457
 4132UDC     C945450  13.971   8.853  11.014 -0.6074 -1.3783  0.5204
 4132UDC    C1045451  13.940   8.708  11.041 -0.3443 -0.7871 -0.2548
 4132UDC    C1145452  13.990   8.668  11.182 -0.1327 -0.8874 -0.2123
 4133UDC     C145453   9.469   8.801   8.474 -0.2662 -0.2144 -0.3364
 4133UDC     C245454   9.476   8.696   8.586 -0.4207 -1.6253  0.2712
 4133UDC     C345455   9.609   8.622   8.614 -0.1475 -0.1691  0.0799
 4133UDC     C445456   9.710   8.683   8.710 -0.3097  0.5049  1.5351
 4133UDC     C545457   9.855   8.651   8.663  0.3598  1.2204  0.4557
 4133UDC     C645458   9.941   8.700   8.776 -1.3117 -0.1265 -0.2900
 4133UDC     C745459  10.087   8.724   8.724 -0.9347  0.5955 -0.0057
 4133UDC     C845460  10.114   8.816   8.596  0.5003  0.2698  0.2425
 4133UDC     C945461  10.251   8.840   8.526  0.4040  1.3074  0.2533
 4133UDC    C1045462  10.343   8.956   8.572 -0.5963 -0.6304  0.7148
 4133UDC    C1145463  10.438   8.928   8.692 -0.3879  0.1156 -0.1659
 4134UDC     C145464   7.933  10.854   2.905 -0.7042  0.6313  0.1768
 4134UDC     C245465   8.050  10.900   3.000  1.1844  1.2206  0.0727
 4134UDC     C345466   8.182  10.905   2.919  0.1825 -0.2184 -0.4631
 4134UDC     C445467   8.284  10.847   3.025 -0.1285  0.6078  1.0069
 4134UDC     C545468   8.253  10.708   3.073  0.4465 -0.0824  0.0127
 4134UDC     C645469   8.240  10.606   2.960  0.9831  0.9605 -0.1761
 4134UDC     C745470   8.364  10.544   2.891 -0.3091  0.3090 -0.3105
 4134UDC     C845471   8.365  10.402   2.829  0.6093 -0.3114  0.2612
 4134UDC     C945472   8.229  10.323   2.865  0.0335  0.6374  0.0387
 4134UDC    C1045473   8.213  10.178   2.827 -0.1001 -0.1608 -0.3257
 4134UDC    C1145474   8.232  10.073   2.943  0.1807  0.2899  1.0764
 4135UDC     C145475  15.875   0.120   4.143  0.4379  0.4250 -1.1582
 4135UDC     C245476  15.773   0.137   4.257 -0.8444  0.8868  1.0662
 4135UDC     C345477  15.832   0.153   4.396 -0.5733 -0.0124 -0.7435
 4135UDC     C445478  15.876   0.293   4.422 -0.2084  0.2778  1.1825
 4135UDC     C545479  15.767   0.394   4.466  0.0535 -0.8127  0.0675
 4135UDC     C645480  15.843   0.500   4.547  0.5538  0.0967 -0.8178
 4135UDC     C745481  15.750   0.580   4.637 -0.8415 -0.0499 -1.4737
 4135UDC     C845482  15.618   0.628   4.573 -0.0858  0.1494  0.4376
 4135UDC     C945483  15.603   0.779   4.548 -0.4599 -0.0949 -1.0318
 4135UDC    C1045484  15.475   0.855   4.555 -0.3694 -0.3919  0.4715
 4135UDC    C1145485  15.361   0.775   4.484  0.3147 -0.4662  0.7483
 4136UDC     C145486  18.007   6.201  12.454 -0.0134 -0.4991  0.6777
 4136UDC     C245487  17.988   6.062  12.524  0.0790 -0.1320  1.1055
 4136UDC     C345488  17.931   5.950  12.436  0.3874  0.4819  0.6990
 4136UDC     C445489  17.912   5.800  12.477  0.1838 -0.0903  0.6316
 4136UDC     C545490  17.773   5.772  12.417  0.7359 -1.0823 -0.0269
 4136UDC     C645491  17.709   5.637  12.454  1.2587 -0.2194  0.4805
 4136UDC     C745492  17.754   5.586  12.594 -1.3802  0.1375  0.4028
 4136UDC     C845493  17.725   5.437  12.616  0.3490  0.1604 -0.3492
 4136UDC     C945494  17.622   5.438  12.736  0.0882 -0.3933  0.0176
 4136UDC    C1045495  17.590   5.301  12.806  0.2985  0.1102 -1.3418
 4136UDC    C1145496  17.526   5.309  12.944 -0.0249  0.1516  0.6581
 4137UDC     C145497  15.324  19.035  19.279 -0.6928  0.7453  0.4143
 4137UDC     C245498  15.442  19.127  19.279  0.0417  0.9528 -0.1175
 4137UDC     C345499  15.421  19.252  19.362  0.4344  0.0800  0.3720
 4137UDC     C445500  15.452  19.235  19.507  0.7675 -0.6358 -0.5014
 4137UDC     C545501  15.422  19.366  19.581  0.0528  0.1684  0.8972
 4137UDC     C645502  15.529  19.478  19.571 -0.1895 -0.7833  0.2149
 4137UDC     C745503  15.506  19.586  19.682  1.4606 -0.0671 -1.5654
 4137UDC     C845504  15.553  19.520  19.823  0.3936 -0.9164 -0.7138
 4137UDC     C945505  15.568  19.619  19.939  0.3413 -0.0682 -0.3053
 4137UDC    C1045506  15.597  19.538  20.064  0.2571 -0.5798  1.1288
 4137UDC    C1145507  15.665  19.601  20.184 -1.5915 -0.1428 -0.4967
 4138UDC     C145508   7.325  12.670  17.326 -0.4202 -0.4175 -1.3275
 4138UDC     C245509   7.449  12.761  17.321  0.3423 -0.1088  1.1081
 4138UDC     C345510   7.437  12.908  17.262 -0.0078 -0.0409  0.6134
 4138UDC     C445511   7.550  12.987  17.329 -0.3899  0.1835 -1.2322
 4138UDC     C545512   7.667  13.014  17.231  1.1848 -0.4951 -0.1837
 4138UDC     C645513   7.778  13.105  17.277 -0.0107  0.1318 -0.0446
 4138UDC     C745514   7.891  13.104  17.178 -0.9403 -0.4671  0.3362
 4138UDC     C845515   7.895  13.176  17.038 -0.5462 -0.5397  0.5271
 4138UDC     C945516   7.875  13.332  17.025  0.0147  0.4970 -0.8556
 4138UDC    C1045517   7.728  13.371  17.021 -0.4230 -0.2184  0.7479
 4138UDC    C1145518   7.670  13.333  16.888 -0.3999  0.5299 -0.0902
 4139UDC     C145519   6.289   2.707   1.136 -0.3301 -0.2986  0.7865
 4139UDC     C245520   6.435   2.749   1.152 -0.0074  0.2247 -2.0502
 4139UDC     C345521   6.467   2.835   1.273  0.3008 -0.2773 -0.9812
 4139UDC     C445522   6.413   2.980   1.286 -0.0845 -0.5163  0.5910
 4139UDC     C545523   6.452   3.047   1.419  0.4872  0.2793  0.0875
 4139UDC     C645524   6.367   3.174   1.440 -0.2194  0.4548 -0.0034
 4139UDC     C745525   6.214   3.137   1.439  0.8945 -1.1554 -0.3306
 4139UDC     C845526   6.137   3.216   1.541  0.3684  0.4757  0.4238
 4139UDC     C945527   6.144   3.158   1.689 -0.0245 -0.7149  0.1990
 4139UDC    C1045528   6.035   3.232   1.778 -0.0086 -0.2260  0.1235
 4139UDC    C1145529   6.014   3.164   1.916 -0.4231  0.3899 -0.3915
 4140UDC     C145530   0.960  17.720  19.929  0.2191  0.4405  1.3921
 4140UDC     C245531   0.913  17.849  19.980 -0.2511 -0.6076  0.2927
 4140UDC     C345532   0.812  17.855  20.101 -0.8060 -0.1516  0.6054
 4140UDC     C445533   0.895  17.827  20.229 -1.0000  0.4364  0.4260
 4140UDC     C545534   0.916  17.948  20.319 -0.4640  1.4529 -0.3108
 4140UDC     C645535   0.783  17.976  20.384  0.0341 -0.0919  0.2020
 4140UDC     C745536   0.766  18.118  20.450 -0.0266 -0.1291 -0.1138
 4140UDC     C845537   0.907  18.156  20.504  1.0002  0.5258 -0.4659
 4140UDC     C945538   0.908  18.246  20.627 -0.7834 -0.2244 -0.3923
 4140UDC    C1045539   1.048  18.267  20.685  0.3869 -0.0201 -1.1905
 4140UDC    C1145540   1.141  18.334  20.578  0.2456  0.7541 -0.3395
 4141UDC     C145541  10.407   7.522  17.731  0.3505 -0.6394 -0.2372
 4141UDC     C245542  10.542   7.591  17.738  0.1863  0.9002 -0.0060
 4141UDC     C345543  10.524   7.698  17.641 -0.0989 -0.2279  0.5141
 4141UDC     C445544  10.496   7.644  17.497 -0.4575  0.1350  0.0604
 4141UDC     C545545  10.486   7.760  17.393 -0.4240  0.2784  0.7882
 4141UDC     C645546  10.445   7.715  17.254  0.2922  0.2603  0.7897
 4141UDC     C745547  10.553   7.623  17.190  0.7806  0.3319 -0.6436
 4141UDC     C845548  10.698   7.680  17.176  0.5117  1.5467 -0.0934
 4141UDC     C945549  10.814   7.583  17.202 -0.2703  0.2302  0.0818
 4141UDC    C1045550  10.961   7.631  17.192  0.3266  0.6039  0.2197
 4141UDC    C1145551  11.011   7.676  17.055  0.9241 -0.1432 -0.1427
 4142UDC     C145552   5.279  11.204  11.549 -0.5007 -0.1728 -0.5811
 4142UDC     C245553   5.399  11.138  11.624 -0.3451 -0.2229  0.2774
 4142UDC     C345554   5.528  11.215  11.607 -0.5226 -0.7069  0.4157
 4142UDC     C445555   5.653  11.144  11.555  0.5918  1.5903 -0.0578
 4142UDC     C545556   5.784  11.204  11.594 -0.1629  0.2322  1.1684
 4142UDC     C645557   5.886  11.109  11.659 -0.1409  1.1412  0.2292
 4142UDC     C745558   6.034  11.142  11.663  0.5195  0.4747 -0.0717
 4142UDC     C845559   6.112  11.148  11.526 -0.2164 -0.2412 -0.5992
 4142UDC     C945560   6.256  11.203  11.532  0.3052  0.9428  0.4337
 4142UDC    C1045561   6.378  11.125  11.483 -0.8656  0.1490  0.6537
 4142UDC    C1145562   6.494  11.229  11.502  0.9604  0.6373  0.5073
 4143UDC     C145563   4.970  17.800   0.039 -0.5149 -0.3042 -0.5740
 4143UDC     C245564   4.954  17.877  -0.087  0.2142  0.0092 -0.8853
 4143UDC     C345565   4.932  18.026  -0.067 -0.2381 -0.1791  0.0532
 4143UDC     C445566   4.931  18.114  -0.194  0.0519  0.2348  0.2891
 4143UDC     C545567   4.848  18.244  -0.188 -0.2491 -0.1835 -1.1976
 4143UDC     C645568   4.703  18.210  -0.155 -0.3925 -0.1879 -0.6556
 4143UDC     C745569   4.622  18.326  -0.095  0.2659 -0.5353  0.3919
 4143UDC     C845570   4.480  18.265  -0.075 -0.4621 -0.6286 -0.6862
 4143UDC     C945571   4.384  18.341   0.020 -0.9268 -0.4142 -0.2775
 4143UDC    C1045572   4.274  18.245   0.055 -0.0417  0.0228 -0.0506
 4143UDC    C1145573   4.167  18.322   0.128 -0.3227  0.4248 -0.4492
 4144UDC     C145574  17.518   9.643   4.653 -0.4265  0.5823 -0.1927
 4144UDC     C245575  17.636   9.569   4.717  0.1792  0.5910  0.0877
 4144UDC     C345576  17.632   9.567   4.873  0.1126  0.1645  0.0771
 4144UDC     C445577  17.745   9.480   4.927 -0.4143 -0.0369 -0.3600
 4144UDC     C545578  17.888   9.516   4.880  0.5149 -0.3840  0.7549
 4144UDC     C645579  17.991   9.412   4.910 -0.1127  0.0609 -1.2643
 4144UDC     C745580  18.020   9.399   5.056 -0.1871 -0.5414  0.8350
 4144UDC     C845581  18.086   9.276   5.124  0.6597 -0.3941 -1.4604
 4144UDC     C945582  18.030   9.139   5.112  0.6819  0.8700 -0.5470
 4144UDC    C1045583  18.091   9.050   5.229  0.6484  0.9011 -0.4763
 4144UDC    C1145584  18.098   9.114   5.378  0.7040  0.2410  0.0325
 4145UDC     C145585  13.860  19.971  12.854 -0.5587 -0.6520 -0.0039
 4145UDC     C245586  13.847  19.879  12.734 -1.4303 -0.2513 -0.1945
 4145UDC     C345587  13.758  19.936  12.624  0.8644 -0.2282 -0.2882
 4145UDC     C445588  13.734  19.871  12.487 -0.6084  0.0619  1.0423
 4145UDC     C545589  13.637  19.953  12.401  0.8997  0.5705 -0.5975
 4145UDC     C645590  13.493  19.925  12.462 -0.0948 -0.5518 -0.9736
 4145UDC     C745591  13.456  19.783  12.482 -0.3319  0.4630 -1.1324
 4145UDC     C845592  13.377  19.759  12.615  0.3970  0.9597  0.7082
 4145UDC     C945593  13.330  19.875  12.700  0.7588 -0.9004  0.0577
 4145UDC    C1045594  13.293  19.813  12.831  0.8068  0.6230  0.3738
 4145UDC    C1145595  13.196  19.697  12.809 -0.2463  0.0769  0.5867
 4146UDC     C145596   0.298   0.317   6.671  0.3972  0.5541 -0.3476
 4146UDC     C245597   0.243   0.286   6.528  1.2562 -1.5005  0.0420
 4146UDC     C345598   0.333   0.204   6.437 -0.2091 -0.4764  1.3998
 4146UDC     C445599   0.299   0.205   6.288 -1.1009 -0.1811 -0.8284
 4146UDC     C545600   0.360   0.084   6.216 -0.7304 -0.1010  0.8704
 4146UDC     C645601   0.300  -0.040   6.291 -0.2279  0.7138 -0.1031
 4146UDC     C745602   0.332  -0.162   6.208  0.4889  0.7994  0.5363
 4146UDC     C845603   0.314  -0.300   6.279  0.1587  0.0564 -0.5359
 4146UDC     C945604   0.377  -0.414   6.194 -0.7137 -0.2496 -0.1926
 4146UDC    C1045605   0.530  -0.411   6.217  0.2822  0.1401 -0.0834
 4146UDC    C1145606   0.586  -0.551   6.224 -0.5566  0.2338  0.4073
 4147UDC     C145607  18.497   7.988  12.117  0.1350 -0.0945  0.0232
 4147UDC     C245608  18.373   7.899  12.120  1.2610 -0.4134  1.3012
 4147UDC     C345609  18.247   7.976  12.183  0.3222  1.1650  0.3769
 4147UDC     C445610  18.105   7.934  12.143 -0.6935  0.2366 -0.4542
 4147UDC     C545611  18.031   8.007  12.027 -0.5428 -0.2310 -0.1757
 4147UDC     C645612  17.875   7.989  12.046 -1.0904 -0.2296  0.2975
 4147UDC     C745613  17.795   8.051  11.931  0.8023 -0.3824  0.6746
 4147UDC     C845614  17.823   7.977  11.804 -0.3560  0.3577  0.2786
 4147UDC     C945615  17.791   7.820  11.808  1.1967  0.5257  0.9244
 4147UDC    C1045616  17.774   7.729  11.683 -0.4445  1.0602 -0.2950
 4147UDC    C1145617  17.645   7.737  11.612  0.1683  0.1192  0.1971
 4148UDC     C145618  10.145  12.169   8.133  0.6631 -0.1439 -0.7482
 4148UDC     C245619  10.005  12.135   8.084 -0.2683  0.0867 -0.0149
 4148UDC     C345620  10.007  12.031   7.965  0.6074  0.9499 -0.7715
 4148UDC     C445621  10.025  11.894   8.038 -1.1028 -0.2819 -0.7512
 4148UDC     C545622  10.011  11.777   7.942 -0.1538 -0.7846 -0.4251
 4148UDC     C645623  10.036  11.634   8.003  0.7814 -0.2887 -0.8132
 4148UDC     C745624   9.977  11.521   7.906  1.0193 -0.0765 -0.1005
 4148UDC     C845625  10.019  11.383   7.949 -0.6990  1.6306  0.6855
 4148UDC     C945626   9.989  11.278   7.839  0.3129  0.0385  0.1737
 4148UDC    C1045627  10.074  11.302   7.716  0.4760 -0.2669  0.6680
 4148UDC    C1145628  10.081  11.179   7.619  0.0180 -0.3830  0.3513
 4149UDC     C145629   6.338   9.531  12.117  0.5121  0.5217 -0.6377
 4149UDC     C245630   6.253   9.463  12.222  0.0326  1.1172  0.2792
 4149UDC     C345631   6.213   9.327  12.166 -0.8799 -0.3081  0.2803
 4149UDC     C445632   6.066   9.292  12.191 -0.9161  0.6199 -0.4911
 4149UDC     C545633   5.968   9.203  12.100 -1.0172  0.0095  0.7224
 4149UDC     C645634   5.830   9.242  12.134 -0.4207 -0.1962 -0.5391
 4149UDC     C745635   5.736   9.172  12.034 -0.1302  0.3267  0.6004
 4149UDC     C845636   5.595   9.223  12.076  0.3915 -0.0697 -1.6960
 4149UDC     C945637   5.529   9.107  12.157  0.1092 -0.6348  0.1990
 4149UDC    C1045638   5.401   9.159  12.221 -1.2551 -0.0238 -0.3200
 4149UDC    C1145639   5.366   9.048  12.323  0.4503 -0.0750  0.1685
 4150UDC     C145640   7.211  17.130   7.438 -0.0874 -0.2394 -0.5060
 4150UDC     C245641   7.148  17.218   7.334  0.3071 -0.4930 -0.5044
 4150UDC     C345642   7.231  17.266   7.217  0.2994  0.7151 -0.6865
 4150UDC     C445643   7.347  17.345   7.287  0.1210 -0.1911  0.3385
 4150UDC     C545644   7.430  17.409   7.173  0.7966  0.1901  0.3358
 4150UDC     C645645   7.578  17.348   7.161  1.2344  0.1259  0.7378
 4150UDC     C745646   7.648  17.352   7.294  0.3730 -0.9766 -0.2760
 4150UDC     C845647   7.768  17.264   7.314 -0.7151  0.0446  0.7290
 4150UDC     C945648   7.872  17.292   7.424  0.6165 -0.4965  0.6846
 4150UDC    C1045649   7.993  17.201   7.415 -0.8123 -1.0966 -0.0923
 4150UDC    C1145650   8.096  17.201   7.533 -0.9664 -0.3146 -0.8628
 4151UDC     C145651   1.915  19.236  12.216 -0.2411 -0.0146 -0.0171
 4151UDC     C245652   1.792  19.338  12.239 -1.1034 -0.4896 -0.9653
 4151UDC     C345653   1.852  19.476  12.220  0.3753 -0.1327 -1.0697
 4151UDC     C445654   1.967  19.488  12.319  0.1397  0.1267 -0.0496
 4151UDC     C545655   1.963  19.610  12.406  0.1629  0.1767 -0.1323
 4151UDC     C645656   2.096  19.644  12.480  0.6526  0.2773 -0.3174
 4151UDC     C745657   2.231  19.616  12.410  0.0360 -0.6892  0.3210
 4151UDC     C845658   2.354  19.653  12.500  0.4984  0.8834 -0.5015
 4151UDC     C945659   2.399  19.798  12.501 -0.2947 -0.0821 -0.4250
 4151UDC    C1045660   2.383  19.864  12.367 -0.0132 -0.7727 -0.2164
 4151UDC    C1145661   2.490  19.850  12.257  0.4400 -0.2962 -0.2769
 4152UDC     C145662  17.056  19.374  13.221  0.2222  0.6194  0.4979
 4152UDC     C245663  16.974  19.302  13.110 -0.0021  0.8760 -0.0835
 4152UDC     C345664  17.044  19.242  12.995 -0.2593  1.0438  0.1150
 4152UDC     C445665  16.967  19.157  12.887  0.3206  0.4724 -0.5337
 4152UDC     C545666  17.073  19.091  12.799  0.0624  0.4992  1.3950
 4152UDC     C645667  17.014  19.016  12.669  0.1086  1.0013 -0.8068
 4152UDC     C745668  16.968  18.879  12.716  1.3530  1.0948  0.1540
 4152UDC     C845669  16.810  18.841  12.730  0.3852 -0.0345  0.5333
 4152UDC     C945670  16.807  18.692  12.774  0.5487 -0.1393 -0.0706
 4152UDC    C1045671  16.830  18.667  12.929 -0.0012  1.1410 -0.6759
 4152UDC    C1145672  16.849  18.514  12.952  0.0690  0.5126 -0.6946
 4153UDC     C145673  11.113  12.414  11.273 -1.3167  0.1591  0.1688
 4153UDC     C245674  11.024  12.396  11.153 -0.1025 -0.1653  0.5910
 4153UDC     C345675  10.878  12.355  11.147  0.0629 -0.1395  0.2695
 4153UDC     C445676  10.874  12.212  11.197  0.2263 -0.4012  0.2206
 4153UDC     C545677  10.866  12.100  11.087  0.7312 -0.4544 -0.0371
 4153UDC     C645678  10.833  11.956  11.143  1.4140 -0.6582  1.7393
 4153UDC     C745679  10.691  11.941  11.207 -1.2517  0.0142 -0.2007
 4153UDC     C845680  10.667  11.902  11.354  0.1050  0.9085  1.1089
 4153UDC     C945681  10.662  12.022  11.451  0.6240 -0.5885 -0.0286
 4153UDC    C1045682  10.632  11.952  11.592  0.2338 -0.7423 -0.0845
 4153UDC    C1145683  10.575  12.057  11.692  0.7206  0.1315  0.6931
 4154UDC     C145684  13.399  17.689  17.017 -0.1887  0.7956 -0.4712
 4154UDC     C245685  13.494  17.758  16.921  0.5414 -0.3599  0.3876
 4154UDC     C345686  13.511  17.913  16.931  1.1300  0.3494  0.5295
 4154UDC     C445687  13.614  17.965  16.839 -0.0911  0.4336 -0.6876
 4154UDC     C545688  13.625  18.113  16.787 -0.4449  0.6776 -0.7092
 4154UDC     C645689  13.667  18.097  16.639  0.0690  0.8399 -0.2047
 4154UDC     C745690  13.687  18.212  16.543 -1.2738 -1.0619  0.0005
 4154UDC     C845691  13.625  18.202  16.399 -0.3880 -0.0106  0.8103
 4154UDC     C945692  13.609  18.311  16.290 -0.1065  0.2005  0.2789
 4154UDC    C1045693  13.491  18.401  16.321 -0.4552 -0.7079  0.1843
 4154UDC    C1145694  13.496  18.509  16.434 -0.3356  0.2398 -0.0253
 4155UDC     C145695  18.076   6.388  17.032  0.6532 -0.0777  0.9243
 4155UDC     C245696  18.080   6.302  17.158 -0.0645  0.0790  0.2577
 4155UDC     C345697  17.975   6.316  17.273 -0.2633  0.4173  1.1576
 4155UDC     C445698  17.851   6.214  17.271 -0.3181 -0.5066 -0.9710
 4155UDC     C545699  17.730   6.273  17.201 -0.2675  0.2478  0.5793
 4155UDC     C645700  17.618   6.179  17.180  0.6600  0.6704 -0.3065
 4155UDC     C745701  17.510   6.231  17.086  0.7686 -0.6768 -0.0135
 4155UDC     C845702  17.502   6.166  16.943  0.0877  0.7011 -0.0544
 4155UDC     C945703  17.606   6.197  16.838 -0.3996 -0.4274 -0.4880
 4155UDC    C1045704  17.742   6.148  16.878 -1.2328 -0.5000  0.1445
 4155UDC    C1145705  17.828   6.193  16.756  0.1243 -0.3472  0.5406
 4156UDC     C145706  14.529   7.105   9.575 -0.9879  0.7402 -0.1125
 4156UDC     C245707  14.609   7.222   9.628  0.2536 -0.8131 -0.8378
 4156UDC     C345708  14.758   7.239   9.574 -0.3599  0.8728 -0.5666
 4156UDC     C445709  14.831   7.373   9.606  0.3143 -0.3754  0.4083
 4156UDC     C545710  14.974   7.401   9.550 -0.1491  0.0430  0.0370
 4156UDC     C645711  14.999   7.504   9.434  0.7825  0.0933  0.4512
 4156UDC     C745712  15.137   7.458   9.369  0.4520  0.2302  0.4471
 4156UDC     C845713  15.164   7.499   9.223  0.0689 -0.4336  0.1842
 4156UDC     C945714  15.312   7.475   9.183 -0.0311  0.6859  0.3363
 4156UDC    C1045715  15.382   7.594   9.117 -0.5687 -0.0561  0.6941
 4156UDC    C1145716  15.360   7.605   8.966 -0.5682 -0.2451 -0.2535
 4157UDC     C145717  11.815   7.703  19.795  0.0120 -0.2238  0.8859
 4157UDC     C245718  11.821   7.853  19.779 -0.1325  0.7015 -0.0005
 4157UDC     C345719  11.964   7.906  19.796  0.1169  0.1418 -0.1193
 4157UDC     C445720  11.975   8.052  19.751  0.2966 -0.7650 -1.1401
 4157UDC     C545721  12.103   8.119  19.788  0.8432  0.4930  0.2118
 4157UDC     C645722  12.119   8.226  19.677  0.4327  0.4924 -0.6972
 4157UDC     C745723  12.010   8.336  19.682 -0.1625 -0.4735  0.7685
 4157UDC     C845724  11.978   8.414  19.550 -0.1212  0.7145  0.6719
 4157UDC     C945725  11.835   8.472  19.579 -0.0611 -0.7473  0.6315
 4157UDC    C1045726  11.780   8.558  19.459 -0.1293  0.9768 -0.6264
 4157UDC    C1145727  11.767   8.464  19.334 -0.2339 -0.7430  0.2476
 4158UDC     C145728  17.138  15.371  12.580 -0.6609  0.7910 -0.3055
 4158UDC     C245729  17.004  15.358  12.646 -0.1499  0.6325  0.3399
 4158UDC     C345730  16.970  15.476  12.741 -0.8070 -1.0770  1.2230
 4158UDC     C445731  16.827  15.494  12.803 -0.4690 -0.6630  0.9071
 4158UDC     C545732  16.700  15.520  12.724 -0.4120 -0.0510 -0.2945
 4158UDC     C645733  16.636  15.386  12.685 -0.0422 -0.8905  0.2571
 4158UDC     C745734  16.479  15.403  12.690 -0.9937  0.4626 -0.1181
 4158UDC     C845735  16.427  15.512  12.598 -0.8695  0.3369  0.0101
 4158UDC     C945736  16.437  15.474  12.446 -0.4992 -0.4663  0.6160
 4158UDC    C1045737  16.395  15.599  12.365 -0.4015  0.0352  0.5101
 4158UDC    C1145738  16.285  15.567  12.260  0.5911 -0.0389  1.1730
 4159UDC     C145739   0.316   5.715   0.388  0.2370  1.1207 -0.2970
 4159UDC     C245740   0.263   5.593   0.481 -0.8141  0.6299  0.2364
 4159UDC     C345741   0.356   5.474   0.485  0.4212  0.2724 -0.1030
 4159UDC     C445742   0.372   5.424   0.339  0.5685  0.1807 -0.5807
 4159UDC     C545743   0.237   5.364   0.284 -0.4843  0.2668  0.2358
 4159UDC     C645744   0.258   5.232   0.213  1.1319 -0.1882  0.6029
 4159UDC     C745745   0.129   5.148   0.177 -0.1111  1.2574  0.8973
 4159UDC     C845746  -0.003   5.155   0.266 -1.4059 -0.0560  0.5155
 4159UDC     C945747  -0.110   5.070   0.196  0.2828 -0.5153 -0.6787
 4159UDC    C1045748  -0.129   5.076   0.054 -0.2161  0.1223 -0.2019
 4159UDC    C1145749  -0.229   5.189   0.035 -0.3857 -0.1386  0.0288
 4160UDC     C145750   1.560  10.766  11.519 -0.5410 -0.6998 -0.9255
 4160UDC     C245751   1.607  10.899  11.593  0.8403  0.4783 -1.1742
 4160UDC     C345752   1.669  10.897  11.737  0.4448 -0.2635  0.4778
 4160UDC     C445753   1.701  11.033  11.802  0.6076 -1.0883 -0.7902
 4160UDC     C545754   1.767  11.034  11.940 -0.3962  0.9174 -0.3815
 4160UDC     C645755   1.655  11.064  12.047 -0.4016  0.5141 -0.2788
 4160UDC     C745756   1.729  11.029  12.183  0.1232  0.8765 -0.0390
 4160UDC     C845757   1.638  11.027  12.300  0.2707 -0.2436 -0.0843
 4160UDC     C945758   1.713  11.004  12.435  0.6699 -0.7099  0.9164
 4160UDC    C1045759   1.613  11.016  12.547  0.7817  0.1393 -0.5230
 4160UDC    C1145760   1.508  10.897  12.550 -1.6739  0.1478 -0.5981
 4161UDC     C145761   2.151   6.884   8.666 -0.5428  0.3222 -0.4769
 4161UDC     C245762   2.258   6.775   8.630 -0.8974 -0.8441 -0.5011
 4161UDC     C345763   2.311   6.704   8.754  0.2026  0.6198  1.1488
 4161UDC     C445764   2.213   6.595   8.796 -1.0947 -0.4059 -1.2821
 4161UDC     C545765   2.194   6.504   8.678  2.0929  0.4887  0.7286
 4161UDC     C645766   2.310   6.441   8.606 -0.5157  0.4167  0.3558
 4161UDC     C745767   2.312   6.289   8.577 -0.1340 -0.2434 -0.3566
 4161UDC     C845768   2.389   6.252   8.451 -0.5684  0.7135  0.2672
 4161UDC     C945769   2.425   6.101   8.442  0.0141 -0.1038  1.5967
 4161UDC    C1045770   2.306   6.017   8.386 -0.4481  0.1032 -0.4487
 4161UDC    C1145771   2.264   6.048   8.242 -0.1319  0.1981 -0.2345
 4162UDC     C145772   2.878  13.036   1.649  0.0354  1.1978 -0.2423
 4162UDC     C245773   2.899  13.150   1.748  0.0628  0.3371  0.0585
 4162UDC     C345774   3.020  13.246   1.750 -0.4953  0.0727  0.5790
 4162UDC     C445775   3.001  13.375   1.829  0.2434 -0.6829  0.8750
 4162UDC     C545776   2.906  13.480   1.761 -0.6183 -0.7060  0.0858
 4162UDC     C645777   2.980  13.544   1.642  0.0429 -0.5035  0.7330
 4162UDC     C745778   2.934  13.687   1.608  0.2832  0.4129  0.1953
 4162UDC     C845779   3.003  13.745   1.482 -0.0564 -0.1456 -0.2458
 4162UDC     C945780   3.000  13.685   1.340 -0.1058 -0.7690  0.0896
 4162UDC    C1045781   3.066  13.785   1.244 -0.1288 -0.4249 -0.0403
 4162UDC    C1145782   3.133  13.717   1.124  0.3499  0.2198  0.1093
 4163UDC     C145783  10.650   6.829   9.440 -0.4306  0.6047  0.2378
 4163UDC     C245784  10.621   6.746   9.313 -0.9913 -0.2091 -0.3766
 4163UDC     C345785  10.580   6.606   9.334 -0.4174  0.0584  0.1184
 4163UDC     C445786  10.456   6.594   9.412 -0.8919 -0.8070 -0.8991
 4163UDC     C545787  10.453   6.494   9.526 -0.2794 -0.2164  0.2571
 4163UDC     C645788  10.487   6.348   9.486  0.4046  0.1086  0.8855
 4163UDC     C745789  10.380   6.311   9.375 -0.3520 -0.4649 -0.5198
 4163UDC     C845790  10.419   6.190   9.288 -0.4649 -0.4260 -0.9945
 4163UDC     C945791  10.491   6.078   9.364 -0.4943 -0.3939  1.6143
 4163UDC    C1045792  10.498   5.948   9.295  0.5082  0.0288  0.5067
 4163UDC    C1145793  10.556   5.828   9.370  0.0273  0.2577 -0.2706
 4164UDC     C145794  10.720  17.779   8.921  0.5038 -0.2208 -0.7095
 4164UDC     C245795  10.869  17.761   8.957 -0.0798  0.3719  0.1205
 4164UDC     C345796  10.945  17.882   8.908 -0.2649  0.8723  0.2065
 4164UDC     C445797  11.091  17.869   8.942 -0.6180 -0.4940  0.8379
 4164UDC     C545798  11.193  17.977   8.906 -0.1358 -0.4980 -0.3020
 4164UDC     C645799  11.144  18.115   8.952 -0.4640 -0.3536 -0.0194
 4164UDC     C745800  11.264  18.205   8.970 -0.3377  0.3708  0.0069
 4164UDC     C845801  11.332  18.206   9.112  0.2518  0.5745  1.0079
 4164UDC     C945802  11.315  18.323   9.208  0.5515  0.2092  0.4368
 4164UDC    C1045803  11.401  18.313   9.336 -1.0769  0.7333  0.7228
 4164UDC    C1145804  11.392  18.432   9.428 -0.6768  0.3047 -0.4707
 4165UDC     C145805  15.022   0.447  10.204  0.4211 -0.0207  0.7405
 4165UDC     C245806  14.943   0.333  10.140 -0.2458 -0.6867  0.2049
 4165UDC     C345807  15.058   0.262  10.067  0.3038 -0.2840 -0.0803
 4165UDC     C445808  15.142   0.355   9.975  0.1229  0.4966  1.3084
 4165UDC     C545809  15.239   0.264   9.902  0.1717 -0.1787  1.4338
 4165UDC     C645810  15.335   0.156   9.965 -0.4975  0.1403 -0.5173
 4165UDC     C745811  15.425   0.069   9.870  0.4050  0.7763 -0.8749
 4165UDC     C845812  15.543   0.005   9.941  0.0435  0.1003 -0.1849
 4165UDC     C945813  15.648   0.113  10.001  0.4217  0.8687  0.0797
 4165UDC    C1045814  15.772   0.080  10.084 -0.2356  0.1951  0.5077
 4165UDC    C1145815  15.883   0.186  10.068  0.0043  0.0079  0.5568
 4166UDC     C145816  15.667  18.663  13.351 -0.6148 -0.2248 -0.6452
 4166UDC     C245817  15.705  18.780  13.249  0.3342  0.6055 -0.7570
 4166UDC     C345818  15.671  18.764  13.102  1.5553 -0.0929 -0.1660
 4166UDC     C445819  15.530  18.722  13.065 -0.1313 -0.7148 -0.9896
 4166UDC     C545820  15.532  18.627  12.948  1.7460  1.4982 -0.2273
 4166UDC     C645821  15.400  18.600  12.876  0.2306 -0.4370  1.5765
 4166UDC     C745822  15.392  18.541  12.726  0.5631 -0.6843 -0.6760
 4166UDC     C845823  15.255  18.527  12.668  0.0436 -0.4579 -0.3910
 4166UDC     C945824  15.252  18.455  12.532 -0.0476  0.5437 -0.0671
 4166UDC    C1045825  15.105  18.432  12.479  0.1767  0.0154 -0.1533
 4166UDC    C1145826  15.083  18.386  12.334  0.2803 -0.5584  0.4171
 4167UDC     C145827   2.069   2.178  12.712  1.2393  1.0887  0.9466
 4167UDC     C245828   2.208   2.117  12.672 -0.2103  0.6457 -0.3142
 4167UDC     C345829   2.195   1.972  12.723 -0.1825 -0.5707 -0.8646
 4167UDC     C445830   2.143   1.851  12.653  1.2319 -1.5531  1.4104
 4167UDC     C545831   1.989   1.852  12.619 -0.8580  0.4278 -0.5579
 4167UDC     C645832   1.935   1.927  12.490 -1.7075  0.7080  0.0998
 4167UDC     C745833   1.788   1.897  12.467 -1.1473  0.5030 -0.5031
 4167UDC     C845834   1.795   1.748  12.467 -0.2512 -0.4619 -0.1197
 4167UDC     C945835   1.666   1.662  12.469 -0.1110 -0.1223  0.1993
 4167UDC    C1045836   1.575   1.670  12.351 -1.0075  0.2180  0.1903
 4167UDC    C1145837   1.456   1.580  12.386  0.3907  0.2950  0.3469
 4168UDC     C145838  19.259   3.149   1.844 -1.5022 -0.5586 -0.8312
 4168UDC     C245839  19.116   3.216   1.824 -0.4599 -0.4169 -0.8197
 4168UDC     C345840  19.049   3.162   1.691 -0.5991  0.4200 -0.5418
 4168UDC     C445841  18.984   3.025   1.727 -0.7688  0.3019  0.8044
 4168UDC     C545842  18.914   2.962   1.598  0.9075  0.9517  0.0798
 4168UDC     C645843  19.013   2.958   1.481 -0.2937 -0.1105  0.3164
 4168UDC     C745844  18.921   2.906   1.361  0.3570 -1.1383  0.8200
 4168UDC     C845845  18.939   2.760   1.321  0.9744 -0.1997 -0.3255
 4168UDC     C945846  18.872   2.729   1.181  0.4207  0.5182  0.9991
 4168UDC    C1045847  18.915   2.609   1.106  0.3128  0.9727 -0.5628
 4168UDC    C1145848  18.816   2.561   1.004  0.0321 -0.7425  0.3897
 4169UDC     C145849   3.916  19.627  12.090  0.1167  0.8479 -0.6912
 4169UDC     C245850   3.790  19.655  12.178 -0.0757  0.7921 -0.0423
 4169UDC     C345851   3.799  19.792  12.258 -0.3929 -0.5918 -0.1549
 4169UDC     C445852   3.937  19.823  12.318 -0.3086  0.0956 -1.2380
 4169UDC     C545853   3.940  19.948  12.403  0.4025 -0.3542  0.9321
 4169UDC     C645854   4.057  19.954  12.492  0.1162  0.4296  0.2118
 4169UDC     C745855   4.038  20.077  12.585 -0.1768 -0.5591 -0.9385
 4169UDC     C845856   4.062  20.203  12.499 -1.1219 -0.5599 -0.8759
 4169UDC     C945857   4.206  20.231  12.436 -0.4837  0.4493 -0.9148
 4169UDC    C1045858   4.315  20.274  12.536  0.7081 -1.1201  0.2400
 4169UDC    C1145859   4.457  20.222  12.509 -0.3397  1.2521  0.0380
 4170UDC     C145860   1.520  10.433  17.492 -0.0702 -0.7620  0.5187
 4170UDC     C245861   1.428  10.466  17.609 -0.2250 -0.3527  0.2198
 4170UDC     C345862   1.489  10.430  17.747 -0.5480 -0.1795  0.0282
 4170UDC     C445863   1.567  10.296  17.772  0.6208  0.5860  0.0181
 4170UDC     C545864   1.601  10.266  17.922  0.7700 -1.0315  0.2941
 4170UDC     C645865   1.745  10.282  17.953  0.5509  0.0205  1.1061
 4170UDC     C745866   1.778  10.325  18.092  0.0180  0.1285  0.2036
 4170UDC     C845867   1.905  10.292  18.166 -0.5870  0.4670 -0.0943
 4170UDC     C945868   1.933  10.142  18.189 -0.4021  0.1468  0.4896
 4170UDC    C1045869   1.816  10.078  18.268  0.6144 -0.2321  0.0473
 4170UDC    C1145870   1.843   9.932  18.304 -0.3342  0.1858  0.8973
 4171UDC     C145871   4.596  13.002   9.985  0.0988  1.1574 -0.4088
 4171UDC     C245872   4.456  13.072   9.994  0.1598 -0.0926  0.3769
 4171UDC     C345873   4.455  13.197  10.079 -0.2936  0.0796 -0.1987
 4171UDC     C445874   4.320  13.261  10.099  0.0251  0.1409  0.1044
 4171UDC     C545875   4.234  13.232   9.971  0.4078 -0.4236  1.1633
 4171UDC     C645876   4.105  13.319   9.931 -0.0331 -0.7847 -0.5835
 4171UDC     C745877   4.062  13.327   9.781  0.5978 -1.0606 -0.1117
 4171UDC     C845878   4.012  13.186   9.738  0.2329  1.2495  0.8060
 4171UDC     C945879   3.951  13.185   9.602  0.9561 -0.7358 -0.0896
 4171UDC    C1045880   3.884  13.051   9.564 -0.8419  1.4508  0.1548
 4171UDC    C1145881   3.918  13.017   9.421  0.6840 -0.9451  1.0826
 4172UDC     C145882  18.474  11.612   2.251  0.4691 -0.4810 -1.1829
 4172UDC     C245883  18.340  11.551   2.196 -0.0549  1.2091 -0.6536
 4172UDC     C345884  18.230  11.535   2.302  0.9079 -0.5984  0.1265
 4172UDC     C445885  18.093  11.497   2.258  0.9326 -0.4703  0.2553
 4172UDC     C545886  18.016  11.389   2.348  0.0322  0.2393 -0.3960
 4172UDC     C645887  17.875  11.437   2.393 -0.5880  0.2417  0.6019
 4172UDC     C745888  17.869  11.500   2.535 -0.1614 -0.0938 -0.9007
 4172UDC     C845889  17.897  11.417   2.668 -0.6962 -0.0007 -0.2257
 4172UDC     C945890  17.846  11.473   2.804  0.7154 -0.8200 -0.0669
 4172UDC    C1045891  17.698  11.440   2.825  0.3530 -0.6670 -0.5540
 4172UDC    C1145892  17.628  11.527   2.931 -0.8968  0.7877  0.3072
 4173UDC     C145893  13.693  13.023  19.345 -0.0616 -0.2534 -0.4293
 4173UDC     C245894  13.568  12.935  19.330 -0.3486  0.1983  0.8222
 4173UDC     C345895  13.450  12.965  19.409  0.6125 -0.0346  0.1564
 4173UDC     C445896  13.385  13.110  19.385  0.6117 -0.4309 -1.1939
 4173UDC     C545897  13.311  13.163  19.503  0.2814 -0.3576 -0.9510
 4173UDC     C645898  13.221  13.059  19.573 -0.7572 -0.0429 -0.4847
 4173UDC     C745899  13.117  13.096  19.693 -0.9368  0.2136  0.4262
 4173UDC     C845900  13.046  12.985  19.764 -0.6999  0.3018  1.1198
 4173UDC     C945901  13.150  12.921  19.855  0.6722 -0.5503 -0.4675
 4173UDC    C1045902  13.104  12.844  19.980  0.3743 -0.5753  0.0442
 4173UDC    C1145903  12.995  12.940  20.035 -0.3273  2.2711 -0.3111
 4174UDC     C145904  18.141  16.614  11.161  0.0451  0.5144  0.7244
 4174UDC     C245905  18.023  16.688  11.224  0.8540 -0.0175 -0.2652
 4174UDC     C345906  17.988  16.810  11.135  0.0197 -0.4146  0.3298
 4174UDC     C445907  17.917  16.915  11.215  0.1423 -0.7530  0.9148
 4174UDC     C545908  17.772  16.894  11.240  0.1201  0.1029  0.2308
 4174UDC     C645909  17.667  17.008  11.249 -0.7544 -0.8732 -0.6045
 4174UDC     C745910  17.692  17.116  11.357 -0.3802  0.1064  0.1869
 4174UDC     C845911  17.657  17.085  11.502 -0.7329  0.1034 -0.3801
 4174UDC     C945912  17.513  17.059  11.544  0.4979  0.4306  0.0452
 4174UDC    C1045913  17.412  17.176  11.557 -0.4517 -1.3083 -0.1722
 4174UDC    C1145914  17.368  17.214  11.695  0.1981  0.3543 -0.7330
 4175UDC     C145915   0.894  10.877  15.283 -0.3495  1.0414  1.8655
 4175UDC     C245916   0.900  10.780  15.158  0.7259  0.2622 -0.4384
 4175UDC     C345917   0.814  10.837  15.041  0.3100 -0.7537  0.2327
 4175UDC     C445918   0.827  10.738  14.924 -1.1688 -0.2755  0.3841
 4175UDC     C545919   0.724  10.751  14.814 -0.2875  0.3622 -0.0078
 4175UDC     C645920   0.750  10.645  14.705 -0.2949 -0.0597 -1.5666
 4175UDC     C745921   0.733  10.514  14.771 -0.0577 -0.4019  0.7922
 4175UDC     C845922   0.609  10.428  14.768  1.4918  1.8158  0.2279
 4175UDC     C945923   0.647  10.311  14.862  0.0968  0.1107  0.1297
 4175UDC    C1045924   0.558  10.186  14.851 -0.0807 -0.0249  0.3141
 4175UDC    C1145925   0.566  10.119  14.994  0.4712 -1.1765 -0.3510
 4176UDC     C145926   6.107   4.278   2.099  0.1283 -0.4023 -1.1224
 4176UDC     C245927   5.993   4.180   2.143  0.2379 -0.9956 -0.0983
 4176UDC     C345928   6.036   4.040   2.124  0.6728  0.8791  0.1191
 4176UDC     C445929   5.932   3.952   2.193 -0.0078 -0.2275 -0.2708
 4176UDC     C545930   5.923   3.811   2.132  0.1159  0.7090 -0.9173
 4176UDC     C645931   6.052   3.724   2.126  0.8862  0.2015  0.8780
 4176UDC     C745932   6.009   3.576   2.152 -0.9333 -1.1730 -0.8588
 4176UDC     C845933   5.886   3.560   2.227 -0.0819  0.2357 -0.2756
 4176UDC     C945934   5.835   3.413   2.203  0.1795  0.4240 -0.3518
 4176UDC    C1045935   5.696   3.368   2.260  0.0776 -0.0429 -0.0658
 4176UDC    C1145936   5.583   3.445   2.192  0.1100  0.2165  0.6081
 4177UDC     C145937  16.759  12.777   7.003  0.4534 -0.7687  0.3945
 4177UDC     C245938  16.702  12.660   7.084 -0.1632  0.9898 -0.1880
 4177UDC     C345939  16.738  12.626   7.230 -0.7350  0.0776 -0.1942
 4177UDC     C445940  16.703  12.733   7.335 -0.7865 -0.4825 -0.8249
 4177UDC     C545941  16.764  12.871   7.342  1.0247 -0.0942  0.5268
 4177UDC     C645942  16.706  12.960   7.455  0.2416 -0.5021  0.0587
 4177UDC     C745943  16.683  12.866   7.576  0.7867  0.1385 -0.9132
 4177UDC     C845944  16.571  12.920   7.668  0.4004  0.0362  0.9122
 4177UDC     C945945  16.435  12.878   7.614  0.3381 -0.4231  0.2173
 4177UDC    C1045946  16.317  12.960   7.678  0.1325  0.4403  0.0465
 4177UDC    C1145947  16.168  12.940   7.620 -0.0234 -0.1484 -0.4886
 4178UDC     C145948  13.715  16.377  14.509  0.3245 -1.0225  0.3433
 4178UDC     C245949  13.827  16.291  14.569 -0.4011 -0.5492 -0.8839
 4178UDC     C345950  13.788  16.148  14.580  0.9266  0.0698  0.3487
 4178UDC     C445951  13.889  16.042  14.619 -0.2221 -0.2480  0.1683
 4178UDC     C545952  13.839  15.890  14.646 -1.0223 -0.6740  0.0604
 4178UDC     C645953  13.936  15.774  14.650 -0.0490  0.1415  0.9835
 4178UDC     C745954  13.857  15.650  14.713 -0.2671 -0.2697 -0.1093
 4178UDC     C845955  13.770  15.558  14.613 -1.0584 -1.0074 -0.9957
 4178UDC     C945956  13.654  15.504  14.685  0.7769  0.3282  0.8146
 4178UDC    C1045957  13.536  15.454  14.588  0.6022  1.1941 -1.7684
 4178UDC    C1145958  13.408  15.384  14.640 -0.3960 -0.4505 -0.8344
 4179UDC     C145959   3.908  13.347  16.527 -0.8359  0.1306 -0.0622
 4179UDC     C245960   4.023  13.352  16.632 -0.4707 -1.0568  0.0134
 4179UDC     C345961   4.133  13.444  16.577  0.4388 -0.5676  0.8269
 4179UDC     C445962   4.264  13.434  16.654 -0.5223  0.1343 -0.3460
 4179UDC     C545963   4.235  13.457  16.797 -0.1980 -0.8051  0.4493
 4179UDC     C645964   4.355  13.438  16.896 -0.5612  0.1290 -1.5284
 4179UDC     C745965   4.484  13.510  16.862  0.3810 -0.4689 -1.5654
 4179UDC     C845966   4.619  13.487  16.938  0.8512 -0.3615  0.8929
 4179UDC     C945967   4.631  13.499  17.088  0.9551  0.6043  0.1945
 4179UDC    C1045968   4.685  13.359  17.133 -1.6278 -0.5174  0.1149
 4179UDC    C1145969   4.612  13.239  17.057 -0.6788  1.0248  0.7008
 4180UDC     C145970  16.570   4.442   2.411  0.7753  0.4353 -0.3592
 4180UDC     C245971  16.429   4.436   2.471  0.4798  1.1575 -0.3465
 4180UDC     C345972  16.392   4.544   2.558  0.7792 -0.4864  0.4187
 4180UDC     C445973  16.395   4.528   2.710  0.7299 -1.5467 -0.1113
 4180UDC     C545974  16.529   4.547   2.784  0.3751  0.6049  0.4235
 4180UDC     C645975  16.515   4.608   2.918  0.9576 -0.7134 -0.6234
 4180UDC     C745976  16.648   4.622   2.992 -0.6290 -0.9049  0.6573
 4180UDC     C845977  16.656   4.694   3.129  1.1915 -0.0835  0.1827
 4180UDC     C945978  16.674   4.584   3.239  0.4690 -0.3987  0.6616
 4180UDC    C1045979  16.785   4.632   3.335 -0.3969  0.1388 -0.3487
 4180UDC    C1145980  16.791   4.557   3.465  1.5236 -0.5705 -1.2409
 4181UDC     C145981   8.076   7.099  11.368 -0.0670 -0.1580 -0.6498
 4181UDC     C245982   8.059   6.993  11.478  0.7936  0.3617 -0.2382
 4181UDC     C345983   8.053   6.850  11.429 -0.2429 -0.9576  0.5531
 4181UDC     C445984   8.060   6.760  11.549  0.0572 -0.3717  1.2041
 4181UDC     C545985   8.181   6.658  11.542  0.4576 -0.1813 -0.5256
 4181UDC     C645986   8.197   6.561  11.664 -0.8617  0.7286 -0.0722
 4181UDC     C745987   8.073   6.466  11.663 -1.2897  0.2514  0.0875
 4181UDC     C845988   8.057   6.387  11.795  0.0120 -0.8344 -0.2517
 4181UDC     C945989   7.911   6.368  11.840 -0.8036 -0.0058  0.3973
 4181UDC    C1045990   7.834   6.501  11.860  0.7958 -0.6874  1.2132
 4181UDC    C1145991   7.900   6.616  11.931  0.8388 -0.4992 -0.7708
 4182UDC     C145992   0.954  10.788  11.440  0.2782 -0.6198 -0.2006
 4182UDC     C245993   0.979  10.682  11.555 -0.1077 -0.6361  0.1579
 4182UDC     C345994   1.111  10.673  11.636  0.0992 -0.8065  0.9769
 4182UDC     C445995   1.101  10.568  11.740 -0.5987 -0.0024 -0.2849
 4182UDC     C545996   0.965  10.484  11.750 -0.6831  0.1655 -0.5580
 4182UDC     C645997   0.957  10.392  11.878 -1.0398 -0.6503  0.3312
 4182UDC     C745998   0.816  10.356  11.919 -0.0524  0.3967  0.0467
 4182UDC     C845999   0.798  10.212  11.872 -0.3492  0.5915 -0.2789
 4182UDC     C946000   0.807  10.123  11.998  0.1280  0.0041 -0.3036
 4182UDC    C1046001   0.818   9.963  11.988  1.1219 -0.6092  0.5110
 4182UDC    C1146002   0.953   9.930  11.929 -0.8174 -0.8316 -0.2543
 4183UDC     C146003  16.791   3.853   2.401  0.5962 -0.3898 -1.2670
 4183UDC     C246004  16.888   3.763   2.477 -1.4355  1.0316  0.0953
 4183UDC     C346005  17.016   3.749   2.393 -0.0439  0.1903  1.5243
 4183UDC     C446006  17.117   3.652   2.453 -1.4707 -0.4828 -0.1642
 4183UDC     C546007  17.066   3.513   2.435  0.6172 -0.2885 -1.0499
 4183UDC     C646008  17.171   3.402   2.415  0.8967 -0.2954  0.2505
 4183UDC     C746009  17.252   3.429   2.292  0.2210 -0.6953 -0.1664
 4183UDC     C846010  17.328   3.311   2.246  0.7647 -1.0504  0.6517
 4183UDC     C946011  17.249   3.174   2.267 -1.0472  0.5819 -0.8282
 4183UDC    C1046012  17.358   3.061   2.252 -0.4760 -0.0037 -0.4537
 4183UDC    C1146013  17.487   3.083   2.328 -0.4492  0.0739 -0.3011
 4184UDC     C146014  18.348   1.360   6.422 -0.1766 -0.6796 -0.9980
 4184UDC     C246015  18.423   1.472   6.348 -0.7143 -0.3172 -0.6839
 4184UDC     C346016  18.552   1.502   6.427 -0.4278 -0.2580 -1.0744
 4184UDC     C446017  18.657   1.577   6.349  0.1395  0.0117  1.7299
 4184UDC     C546018  18.702   1.517   6.208  0.2521 -0.4265 -0.1846
 4184UDC     C646019  18.675   1.591   6.070  1.5044 -0.1457 -0.3647
 4184UDC     C746020  18.785   1.553   5.967 -0.3736 -0.9502  0.6764
 4184UDC     C846021  18.843   1.680   5.898  0.7347  0.7743  0.1023
 4184UDC     C946022  18.955   1.634   5.805 -0.1972  0.4333 -0.3006
 4184UDC    C1046023  19.081   1.700   5.846 -0.1318 -0.7914  0.0792
 4184UDC    C1146024  19.061   1.847   5.823  0.0770  0.2207 -0.5695
 4185UDC     C146025   9.237   7.503  14.610  0.5455  0.0507  0.4501
 4185UDC     C246026   9.360   7.529  14.698 -0.2933  0.3391  0.4472
 4185UDC     C346027   9.410   7.404  14.771  0.2202  0.5253 -0.6894
 4185UDC     C446028   9.507   7.461  14.885 -0.3449  0.1933 -0.6943
 4185UDC     C546029   9.638   7.534  14.831  0.0112  0.0727 -0.0421
 4185UDC     C646030   9.741   7.592  14.928  0.4766  1.3811  0.3162
 4185UDC     C746031   9.808   7.717  14.875  0.2207 -0.4006 -1.1820
 4185UDC     C846032   9.943   7.673  14.830  0.0882  0.2411 -0.4111
 4185UDC     C946033  10.023   7.601  14.939 -0.3345  1.5756 -0.8358
 4185UDC    C1046034  10.159   7.540  14.918  0.5992 -0.2324  0.2390
 4185UDC    C1146035  10.182   7.449  14.790  0.3006  0.3249 -0.0140
 4186UDC     C146036   2.609   7.215  17.859 -0.4358  1.1028  0.4767
 4186UDC     C246037   2.587   7.131  17.732  0.1881  0.3881  0.5728
 4186UDC     C346038   2.722   7.081  17.670  0.4963 -0.4460 -0.7547
 4186UDC     C446039   2.795   7.009  17.781  0.1316  1.0605  0.1494
 4186UDC     C546040   2.941   6.952  17.761 -0.0920 -0.0844  0.4766
 4186UDC     C646041   2.931   6.872  17.625  0.4089 -1.0011 -0.0552
 4186UDC     C746042   3.043   6.758  17.605  0.6699 -0.3028 -0.2153
 4186UDC     C846043   3.004   6.688  17.475  0.3919  0.4549  0.4603
 4186UDC     C946044   3.068   6.546  17.474 -0.9345  0.3094 -1.3509
 4186UDC    C1046045   3.050   6.473  17.347  0.6209  0.7156 -0.6538
 4186UDC    C1146046   3.154   6.371  17.307 -0.1567 -0.4131  0.5409
 4187UDC     C146047   3.023  13.563  10.331  0.3881 -0.1780  0.4215
 4187UDC     C246048   2.978  13.448  10.427 -0.4421 -0.5489 -0.3582
 4187UDC     C346049   2.829  13.425  10.460 -0.2796 -0.0494  0.5915
 4187UDC     C446050   2.812  13.281  10.511  0.3058  0.0208  0.2856
 4187UDC     C546051   2.877  13.261  10.649 -0.2035  0.3037  0.6633
 4187UDC     C646052   2.880  13.108  10.696 -0.0496  0.6016  0.0888
 4187UDC     C746053   3.012  13.052  10.762 -0.0993  0.7262 -0.2016
 4187UDC     C846054   3.035  13.122  10.895 -0.3770 -0.2553 -0.1527
 4187UDC     C946055   2.927  13.075  10.991 -0.6039 -0.3527 -0.4384
 4187UDC    C1046056   2.906  13.144  11.124 -1.0164 -1.0224 -0.4134
 4187UDC    C1146057   2.765  13.196  11.153  0.0409  0.4782  0.5292
 4188UDC     C146058   1.540   9.450   1.485  0.0864 -0.3460 -0.2683
 4188UDC     C246059   1.412   9.535   1.480 -0.8032 -0.3063  0.0184
 4188UDC     C346060   1.383   9.627   1.603  0.2119 -0.7568 -0.3310
 4188UDC     C446061   1.294   9.557   1.705  0.1701 -0.1139 -0.0197
 4188UDC     C546062   1.332   9.423   1.778 -0.0462 -0.8307  0.8105
 4188UDC     C646063   1.203   9.380   1.855 -0.4091  0.4278  0.8860
 4188UDC     C746064   1.113   9.294   1.754  0.4336 -0.2410  0.2144
 4188UDC     C846065   1.179   9.181   1.671  0.2658 -0.3423 -0.1305
 4188UDC     C946066   1.084   9.068   1.644  0.8560  1.2158 -0.3264
 4188UDC    C1046067   1.133   8.946   1.559  0.8108 -0.1362 -0.1652
 4188UDC    C1146068   1.011   8.845   1.558 -0.4029  0.0445 -0.4745
 4189UDC     C146069   8.087  13.524   6.606  0.6877 -0.7464  0.1312
 4189UDC     C246070   8.012  13.393   6.577 -0.4297  0.2463  0.4797
 4189UDC     C346071   8.076  13.259   6.595 -0.0631  0.3495  0.2108
 4189UDC     C446072   8.024  13.132   6.510  0.4749  0.4427 -0.5119
 4189UDC     C546073   8.125  13.014   6.521  0.4687 -0.1851  0.0387
 4189UDC     C646074   8.108  12.938   6.656  0.1673 -0.1687 -0.0970
 4189UDC     C746075   8.132  12.784   6.676  0.9125 -0.6612  1.1743
 4189UDC     C846076   8.251  12.721   6.597 -0.0644 -1.4501 -0.2528
 4189UDC     C946077   8.283  12.574   6.622 -0.3731  1.8199 -0.1291
 4189UDC    C1046078   8.430  12.554   6.670  0.6276 -0.9740  0.0782
 4189UDC    C1146079   8.484  12.415   6.640 -0.3983 -0.3527 -0.2074
 4190UDC     C146080  18.696   7.169  19.926 -0.0507  0.8322  0.7646
 4190UDC     C246081  18.581   7.083  19.874 -0.0734 -0.4982 -0.7308
 4190UDC     C346082  18.531   7.121  19.737 -0.8204  0.4883  0.5291
 4190UDC     C446083  18.414   7.024  19.700  0.3523 -0.7059 -0.4708
 4190UDC     C546084  18.304   7.085  19.618 -0.1775  0.0642  0.4744
 4190UDC     C646085  18.218   7.207  19.671 -0.6942  0.5221  0.4837
 4190UDC     C746086  18.085   7.225  19.592  0.1481 -0.1256 -0.0689
 4190UDC     C846087  18.006   7.354  19.634  1.3732 -0.4196 -0.0658
 4190UDC     C946088  17.890   7.401  19.548 -0.6159  1.3005 -0.2811
 4190UDC    C1046089  17.771   7.308  19.525 -0.1726 -0.7290  0.4942
 4190UDC    C1146090  17.702   7.379  19.402  0.0300 -0.5644 -0.7114
 4191UDC     C146091  11.630  18.287  12.513  0.2354 -0.6577  0.5180
 4191UDC     C246092  11.779  18.294  12.493  0.6203  0.4745 -0.3762
 4191UDC     C346093  11.841  18.168  12.557  0.0674  0.3589 -0.4677
 4191UDC     C446094  11.824  18.032  12.482  0.3254 -0.2624  0.5748
 4191UDC     C546095  11.910  17.994  12.361 -0.8697 -0.1522  0.4602
 4191UDC     C646096  12.057  17.967  12.401 -0.2713  1.5728  0.5673
 4191UDC     C746097  12.145  18.091  12.405  0.2286  0.3460  0.3268
 4191UDC     C846098  12.296  18.054  12.403  0.3183  0.6310 -0.1188
 4191UDC     C946099  12.397  18.164  12.438 -0.4220 -0.0769  0.0839
 4191UDC    C1046100  12.386  18.233  12.581  0.3665 -0.3836  0.2365
 4191UDC    C1146101  12.496  18.331  12.614  0.1037  0.4394 -0.2208
 4192UDC     C146102  15.846  13.515  19.291  0.0259  0.5215 -0.7824
 4192UDC     C246103  15.993  13.537  19.247 -0.4068  0.5033 -0.2803
 4192UDC     C346104  16.061  13.449  19.143 -0.1526  0.6370  0.3813
 4192UDC     C446105  16.215  13.460  19.131  0.1599 -0.0046  0.5689
 4192UDC     C546106  16.254  13.605  19.118 -0.3937 -0.5054 -0.4592
 4192UDC     C646107  16.392  13.624  19.181  0.2231 -0.7852  0.3031
 4192UDC     C746108  16.430  13.769  19.201 -0.8954 -1.2414 -1.1448
 4192UDC     C846109  16.572  13.775  19.259 -0.5790  0.5964  0.4572
 4192UDC     C946110  16.638  13.915  19.236 -0.1859  0.4346 -0.1711
 4192UDC    C1046111  16.588  14.039  19.306 -0.3828  1.1431 -0.1195
 4192UDC    C1146112  16.565  14.015  19.451 -0.7352 -0.1901 -0.9728
 4193UDC     C146113   7.566  11.714   3.196  0.3907 -0.4633 -0.3551
 4193UDC     C246114   7.581  11.567   3.218 -0.7500  0.1943  1.2416
 4193UDC     C346115   7.532  11.478   3.101 -0.0048  0.5872 -0.3113
 4193UDC     C446116   7.618  11.471   2.973  0.5374 -0.8571  0.9610
 4193UDC     C546117   7.564  11.378   2.864 -0.4565 -0.4993  0.0056
 4193UDC     C646118   7.657  11.310   2.768 -0.0240 -0.3186  0.2298
 4193UDC     C746119   7.703  11.172   2.817  0.4034  1.3140  0.3215
 4193UDC     C846120   7.748  11.060   2.719  0.1149 -0.3599  0.2799
 4193UDC     C946121   7.645  11.033   2.604  0.2128  0.3665  0.5739
 4193UDC    C1046122   7.680  10.906   2.515 -0.6000 -1.2099 -0.4138
 4193UDC    C1146123   7.826  10.909   2.456 -0.5212 -0.0591 -0.1223
 4194UDC     C146124  19.075   8.404  10.626 -0.2278  0.7655  0.0345
 4194UDC     C246125  18.937   8.386  10.694 -0.8503 -0.1158  0.5071
 4194UDC     C346126  18.941   8.321  10.834 -0.3020  0.7613  0.3737
 4194UDC     C446127  18.807   8.281  10.900 -0.7900 -0.1395 -0.7032
 4194UDC     C546128  18.815   8.236  11.051 -0.5329 -0.9656 -0.4134
 4194UDC     C646129  18.695   8.286  11.133 -0.2774 -0.2085  1.5253
 4194UDC     C746130  18.720   8.257  11.281  0.0467  0.9334  0.0873
 4194UDC     C846131  18.654   8.131  11.325  0.5914  1.0299 -0.4764
 4194UDC     C946132  18.715   7.991  11.274 -0.3520 -0.8091  0.2917
 4194UDC    C1046133  18.838   7.953  11.356  0.8281  0.4653  1.0643
 4194UDC    C1146134  18.967   8.038  11.353  0.3839 -0.2783 -0.2257
 4195UDC     C146135  14.342   2.586  16.740 -0.0234  0.9001  1.0736
 4195UDC     C246136  14.395   2.602  16.592 -0.0041  1.0867  0.2094
 4195UDC     C346137  14.308   2.673  16.488  0.1341  0.2864  0.3122
 4195UDC     C446138  14.391   2.721  16.364  1.1948 -0.3625  0.1864
 4195UDC     C546139  14.298   2.826  16.281  0.2259  0.2601  0.5272
 4195UDC     C646140  14.389   2.885  16.168 -0.5552  0.8377  0.1320
 4195UDC     C746141  14.354   3.015  16.115  0.0056 -0.3720  0.8710
 4195UDC     C846142  14.447   3.116  16.168 -0.1310  0.8949 -0.4924
 4195UDC     C946143  14.418   3.265  16.146  0.0297 -0.7511  0.1636
 4195UDC    C1046144  14.462   3.381  16.241  0.1764  0.1415 -0.5704
 4195UDC    C1146145  14.590   3.344  16.319  0.0846  0.8017 -0.4414
 4196UDC     C146146   8.542  13.958   8.861  0.0699 -0.1356 -0.8976
 4196UDC     C246147   8.541  13.818   8.792  0.1368  0.7518  0.6969
 4196UDC     C346148   8.583  13.690   8.860  0.5111  0.9476  0.2186
 4196UDC     C446149   8.734  13.686   8.884 -0.0969 -0.0616  0.0233
 4196UDC     C546150   8.786  13.545   8.917  0.5663 -0.2175 -1.0035
 4196UDC     C646151   8.932  13.526   8.953 -0.3118 -0.9160 -0.4282
 4196UDC     C746152   8.986  13.641   9.043  0.3628  1.2254  0.1660
 4196UDC     C846153   9.118  13.625   9.115  0.5224  0.3261  0.7191
 4196UDC     C946154   9.168  13.764   9.166  0.8052 -0.6541 -0.2828
 4196UDC    C1046155   9.284  13.787   9.261 -0.3172  0.3029  0.6940
 4196UDC    C1146156   9.263  13.720   9.404 -0.0985 -0.9016  0.1889
 4197UDC     C146157   3.293  10.162  13.925  0.2330  0.2272  0.5338
 4197UDC     C246158   3.241  10.253  14.040  0.3910  0.5205  0.0451
 4197UDC     C346159   3.100  10.300  13.994  0.3355  0.4893  1.1281
 4197UDC     C446160   3.036  10.380  14.109  0.7118  0.6857  0.4635
 4197UDC     C546161   3.091  10.514  14.163 -0.2301  0.2870  1.1451
 4197UDC     C646162   3.131  10.612  14.054  0.8092 -0.6235  0.6269
 4197UDC     C746163   3.188  10.755  14.087 -0.2259  0.0473 -0.3419
 4197UDC     C846164   3.337  10.749  14.134  0.4900 -0.3582 -0.4922
 4197UDC     C946165   3.373  10.893  14.176  0.7966  0.0987 -0.4902
 4197UDC    C1046166   3.288  10.938  14.295  0.3433 -0.2146 -0.6156
 4197UDC    C1146167   3.328  10.879  14.431 -0.3274 -0.3312 -0.9757
 4198UDC     C146168  13.415  19.380   3.212 -0.6820 -0.6365 -0.4601
 4198UDC     C246169  13.354  19.300   3.101 -0.2083  0.2262  0.7922
 4198UDC     C346170  13.289  19.378   2.995 -0.7845 -0.4377  0.3013
 4198UDC     C446171  13.198  19.286   2.914  0.0330 -0.3313 -0.9616
 4198UDC     C546172  13.079  19.371   2.869 -0.0671  0.0033 -0.1724
 4198UDC     C646173  12.968  19.279   2.809 -0.6833 -1.1972  0.6204
 4198UDC     C746174  12.887  19.187   2.893 -0.6977  0.8850  0.6626
 4198UDC     C846175  12.903  19.052   2.816  0.5025  0.2240 -0.1076
 4198UDC     C946176  13.047  18.993   2.796  0.4235  0.4805 -0.5590
 4198UDC    C1046177  13.034  18.845   2.764 -0.9993  0.2592 -0.1222
 4198UDC    C1146178  12.964  18.768   2.881 -0.1061 -0.9921  0.1274
 4199UDC     C146179  14.476   6.225   7.570  0.3624  0.0627 -0.2035
 4199UDC     C246180  14.545   6.238   7.433  0.2728 -1.6225 -0.2451
 4199UDC     C346181  14.557   6.391   7.389  0.1799  0.2944  0.1066
 4199UDC     C446182  14.444   6.444   7.290 -0.1474 -0.4003 -0.1206
 4199UDC     C546183  14.429   6.386   7.150 -0.8720 -0.1297  0.2897
 4199UDC     C646184  14.288   6.367   7.092 -0.8907  0.0364  0.2549
 4199UDC     C746185  14.303   6.298   6.953 -0.7714 -1.3248  0.0728
 4199UDC     C846186  14.179   6.301   6.865 -1.0479  0.0765 -0.6856
 4199UDC     C946187  14.060   6.244   6.941  0.9707 -0.4843  0.1237
 4199UDC    C1046188  13.949   6.296   6.843 -0.8508  0.4551 -1.1687
 4199UDC    C1146189  13.966   6.243   6.695 -0.2102  0.4478 -0.7511
 4200UDC     C146190   5.124   9.084   0.763  0.3004  0.1030 -0.0958
 4200UDC     C246191   5.144   9.125   0.906  0.1830  0.3850  0.3489
 4200UDC     C346192   5.171   9.013   0.999  0.0094  0.8562 -0.1271
 4200UDC     C446193   5.091   9.027   1.126  0.1279 -0.1278 -0.5170
 4200UDC     C546194   4.942   9.043   1.092 -0.2037 -0.2206  0.0571
 4200UDC     C646195   4.881   8.904   1.064  0.9783 -0.4697 -0.2132
 4200UDC     C746196   4.884   8.813   1.190 -0.7672  0.1748  0.1767
 4200UDC     C846197   4.756   8.767   1.250  0.2834 -0.5294 -1.1068
 4200UDC     C946198   4.754   8.675   1.376  0.1045  0.3725 -0.4285
 4200UDC    C1046199   4.636   8.574   1.395  0.1589 -0.5709  0.0506
 4200UDC    C1146200   4.651   8.456   1.485 -0.2251  1.2916 -0.2322
 4201UDC     C146201  10.507  12.737  14.090  0.3738 -0.3211  0.1790
 4201UDC     C246202  10.407  12.752  14.206  0.3566 -0.1357 -0.3279
 4201UDC     C346203  10.259  12.716  14.173 -0.1325  0.1540 -0.8152
 4201UDC     C446204  10.249  12.576  14.100 -0.1286 -1.0262 -0.0082
 4201UDC     C546205  10.108  12.531  14.050 -0.7304 -0.6290 -0.3566
 4201UDC     C646206  10.036  12.645  13.975  0.6458 -1.6886  0.2795
 4201UDC     C746207   9.890  12.620  13.920 -0.7981 -0.2310  0.6750
 4201UDC     C846208   9.896  12.592  13.772 -0.3262  0.2831 -0.0426
 4201UDC     C946209   9.757  12.617  13.715 -0.4135  0.5221  0.3411
 4201UDC    C1046210   9.672  12.483  13.725 -0.6260 -0.1739 -0.2091
 4201UDC    C1146211   9.533  12.499  13.670  0.0583 -0.2662 -0.0904
 4202UDC     C146212  10.489  15.155  17.287 -0.7482  0.2255 -0.4440
 4202UDC     C246213  10.606  15.061  17.328 -0.9964 -0.0948 -1.6325
 4202UDC     C346214  10.737  15.122  17.386 -0.5819  0.0180  0.0006
 4202UDC     C446215  10.854  15.163  17.298 -0.2787  0.3591 -0.5242
 4202UDC     C546216  10.963  15.236  17.378 -0.0705  0.0893 -0.5914
 4202UDC     C646217  11.008  15.185  17.515  0.1909 -0.0715 -0.7557
 4202UDC     C746218  11.024  15.301  17.618  0.4621 -0.2461 -0.5642
 4202UDC     C846219  11.051  15.253  17.755 -0.4521  1.2675 -0.6055
 4202UDC     C946220  11.080  15.363  17.860  0.3837 -0.6287 -0.4894
 4202UDC    C1046221  11.198  15.450  17.817  0.1648  0.5274  0.8332
 4202UDC    C1146222  11.287  15.514  17.924 -0.9188 -0.2058  0.6937
 4203UDC     C146223  13.220  14.532   6.442  0.2241  0.5304 -0.2842
 4203UDC     C246224  13.296  14.614   6.545  0.1633 -0.2545 -0.7658
 4203UDC     C346225  13.388  14.715   6.479 -0.3865  0.3941  0.6948
 4203UDC     C446226  13.364  14.857   6.535 -0.2137 -0.0972 -0.2469
 4203UDC     C546227  13.354  14.975   6.440  0.1854 -0.0723 -0.0166
 4203UDC     C646228  13.284  15.097   6.501  0.3679  0.1532 -0.6320
 4203UDC     C746229  13.138  15.049   6.559 -0.3441 -0.4082  0.6436
 4203UDC     C846230  13.029  15.005   6.459  0.1717 -0.7549  1.0576
 4203UDC     C946231  12.901  14.995   6.542 -0.2604  0.3154 -0.9908
 4203UDC    C1046232  12.788  14.910   6.495  0.3663  0.2135 -0.0490
 4203UDC    C1146233  12.677  14.889   6.603  0.6927  0.6413  0.1342
 4204UDC     C146234   3.180   4.796   9.800  0.8179 -0.3556 -0.3619
 4204UDC     C246235   3.170   4.878   9.929  0.4653 -0.8272  0.7459
 4204UDC     C346236   3.190   4.805  10.067  0.9472 -0.9250  0.1514
 4204UDC     C446237   3.158   4.897  10.180 -0.5259  0.9181 -0.9642
 4204UDC     C546238   3.203   5.036  10.149 -0.1735 -0.8337  0.0607
 4204UDC     C646239   3.133   5.137  10.244  0.1360 -0.0084  0.8040
 4204UDC     C746240   3.185   5.137  10.387  0.4297 -0.6758 -0.2553
 4204UDC     C846241   3.236   5.271  10.442 -0.1232  0.3394  0.2853
 4204UDC     C946242   3.377   5.254  10.497  0.2166  0.4754  0.7934
 4204UDC    C1046243   3.376   5.138  10.601 -0.1817  0.8804  0.7182
 4204UDC    C1146244   3.511   5.118  10.671 -0.1846 -0.8746  0.2735
 4205UDC     C146245   8.453  15.154  13.499  0.0556  0.0918 -0.0109
 4205UDC     C246246   8.595  15.196  13.474  0.9130  0.0619  0.2462
 4205UDC     C346247   8.672  15.307  13.563  0.1417  0.1599  1.1356
 4205UDC     C446248   8.711  15.251  13.704 -0.5081  0.0070 -0.7773
 4205UDC     C546249   8.823  15.327  13.781  0.3005 -0.0712 -0.9106
 4205UDC     C646250   8.870  15.249  13.909 -0.6164 -0.2345  0.9441
 4205UDC     C746251   8.819  15.283  14.054 -0.1591 -0.9478 -0.7012
 4205UDC     C846252   8.876  15.406  14.124  0.7846 -0.7396 -0.7482
 4205UDC     C946253   8.815  15.545  14.091  0.5853  1.1914  0.3916
 4205UDC    C1046254   8.794  15.630  14.218 -0.3951 -0.3914  0.5204
 4205UDC    C1146255   8.697  15.543  14.294  1.0501 -0.2800  0.7388
 4206UDC     C146256   4.578   1.548  13.815 -0.2359 -0.6141 -1.2326
 4206UDC     C246257   4.546   1.462  13.940  0.6722  1.0435  0.1766
 4206UDC     C346258   4.623   1.506  14.078  0.3665  0.6239 -1.7548
 4206UDC     C446259   4.775   1.495  14.046 -0.0779  0.0908 -0.5784
 4206UDC     C546260   4.845   1.399  14.147  0.1242 -0.1657 -0.3655
 4206UDC     C646261   4.967   1.350  14.072 -0.0610  0.4102  0.1936
 4206UDC     C746262   4.934   1.265  13.948 -0.6880 -0.2445 -0.5338
 4206UDC     C846263   4.852   1.133  13.969  0.2062 -0.3169  0.2303
 4206UDC     C946264   4.845   1.053  13.833  0.2973  0.5452 -0.2858
 4206UDC    C1046265   4.774   0.921  13.837 -0.2347  1.4191  0.8385
 4206UDC    C1146266   4.823   0.820  13.937  0.4585 -0.5030 -0.6188
 4207UDC     C146267   6.990  12.029   1.356  0.1925 -1.3326  1.1640
 4207UDC     C246268   7.121  11.972   1.313 -0.9431  0.7746 -0.3448
 4207UDC     C346269   7.104  11.871   1.191 -0.1236  0.4495  0.3051
 4207UDC     C446270   7.244  11.830   1.133 -0.2296  0.5136  0.0986
 4207UDC     C546271   7.208  11.704   1.050  0.4101  0.3545  0.1983
 4207UDC     C646272   7.329  11.639   0.969  1.1760  0.0734  0.0569
 4207UDC     C746273   7.441  11.570   1.049 -0.0926  0.0122 -0.2163
 4207UDC     C846274   7.405  11.433   1.122  0.8070 -0.2208 -0.6600
 4207UDC     C946275   7.434  11.312   1.033  0.4239 -0.0398 -0.6920
 4207UDC    C1046276   7.340  11.287   0.913  0.2422 -0.0913 -0.6964
 4207UDC    C1146277   7.238  11.169   0.931  0.0240 -0.6907 -0.7970
 4208UDC     C146278   7.010  14.386  13.344 -1.3005 -0.0935 -0.2779
 4208UDC     C246279   6.965  14.444  13.480 -0.4737  0.5634 -0.1392
 4208UDC     C346280   6.837  14.526  13.449 -0.2475 -0.5441 -0.7683
 4208UDC     C446281   6.737  14.484  13.558 -0.4907  0.3429  0.4430
 4208UDC     C546282   6.759  14.546  13.702  0.3520  0.1366  0.9650
 4208UDC     C646283   6.636  14.533  13.796 -0.2965  0.7105 -0.9869
 4208UDC     C746284   6.633  14.615  13.921 -0.3592  0.3295 -0.6813
 4208UDC     C846285   6.508  14.614  14.013  0.8220 -0.4167 -0.7134
 4208UDC     C946286   6.496  14.716  14.131 -0.3580  0.7043  1.3603
 4208UDC    C1046287   6.536  14.850  14.069 -0.0563 -0.1013 -0.0018
 4208UDC    C1146288   6.535  14.982  14.155 -0.3935  0.0942  0.9591
 4209UDC     C146289  10.388   3.087  11.830  0.3057 -0.1529  0.4457
 4209UDC     C246290  10.542   3.068  11.829  1.1647 -0.4259 -0.0874
 4209UDC     C346291  10.575   2.940  11.763  0.5439 -0.6952  0.8886
 4209UDC     C446292  10.721   2.924  11.717 -0.2818  0.7098  0.4620
 4209UDC     C546293  10.755   2.835  11.592 -0.0776  0.8084  0.2080
 4209UDC     C646294  10.901   2.806  11.589  0.3224  0.2119  0.2434
 4209UDC     C746295  10.923   2.715  11.467 -0.8921  0.3196  0.5645
 4209UDC     C846296  11.063   2.706  11.411  0.3868 -0.4320  0.6737
 4209UDC     C946297  11.181   2.665  11.510 -0.4292  0.0104  0.2280
 4209UDC    C1046298  11.160   2.519  11.560 -0.5420 -1.0170 -0.4022
 4209UDC    C1146299  11.282   2.439  11.603  0.7916  0.4424  0.3369
 4210UDC     C146300   1.991   4.605   5.243 -0.7603  0.5765 -0.6838
 4210UDC     C246301   2.052   4.533   5.361 -0.4163 -1.9811  0.3033
 4210UDC     C346302   2.198   4.494   5.327  0.2696 -0.3507 -1.0639
 4210UDC     C446303   2.293   4.604   5.275 -0.4725  0.0551  0.0047
 4210UDC     C546304   2.397   4.545   5.181 -0.4263 -0.5547 -0.2293
 4210UDC     C646305   2.359   4.543   5.029 -0.6436 -0.9982  1.4542
 4210UDC     C746306   2.367   4.684   4.956  0.1947  0.0970 -0.7182
 4210UDC     C846307   2.507   4.705   4.898  0.2046 -0.2504 -0.4138
 4210UDC     C946308   2.554   4.593   4.796 -1.0318 -0.0905 -0.9283
 4210UDC    C1046309   2.587   4.650   4.661 -0.8343 -0.0411 -0.3867
 4210UDC    C1146310   2.735   4.629   4.620 -0.3758  0.5739  0.8896
 4211UDC     C146311   9.373  10.162  14.283 -0.6286 -0.3181  0.3706
 4211UDC     C246312   9.462  10.217  14.173 -0.6701  0.4397 -0.8612
 4211UDC     C346313   9.420  10.201  14.028  0.2734  0.4743  1.5390
 4211UDC     C446314   9.425  10.313  13.923 -0.4387 -0.9028  0.8167
 4211UDC     C546315   9.344  10.265  13.805  0.4800  0.8483 -0.3364
 4211UDC     C646316   9.187  10.268  13.801 -0.1932 -0.1865 -0.4886
 4211UDC     C746317   9.127  10.388  13.721  0.2810  0.0972 -1.7594
 4211UDC     C846318   9.063  10.511  13.797  0.1235 -0.3909  0.2625
 4211UDC     C946319   8.960  10.573  13.701  0.7425  0.9579 -0.0892
 4211UDC    C1046320   8.934  10.724  13.723 -0.7030  0.3463  0.0799
 4211UDC    C1146321   8.856  10.792  13.613  0.2547  0.0149 -0.6115
 4212UDC     C146322   9.660   7.596   7.134 -0.4944 -1.8422  0.0483
 4212UDC     C246323   9.716   7.492   7.223 -0.0200 -0.8663 -0.4874
 4212UDC     C346324   9.853   7.422   7.179 -0.8230  0.3371 -1.0187
 4212UDC     C446325   9.837   7.282   7.108  0.7203  0.3204  1.0528
 4212UDC     C546326   9.960   7.211   7.069 -0.1580 -0.1448  1.0852
 4212UDC     C646327  10.081   7.309   7.044  0.2184  0.2772 -0.3143
 4212UDC     C746328  10.221   7.254   7.091 -0.2443 -0.2602  0.2391
 4212UDC     C846329  10.299   7.207   6.967  0.0968  1.0874 -0.6364
 4212UDC     C946330  10.426   7.130   7.000 -1.5516  0.4999 -0.3978
 4212UDC    C1046331  10.486   7.112   6.851  0.8407  0.1346  0.3007
 4212UDC    C1146332  10.595   7.011   6.823 -0.2749 -0.0959 -0.2277
 4213UDC     C146333   9.313   7.012  12.371  0.3618 -0.7226  0.7953
 4213UDC     C246334   9.361   7.147  12.325  0.4405  0.1961  0.1182
 4213UDC     C346335   9.335   7.184  12.178 -0.1002 -0.7656  0.2296
 4213UDC     C446336   9.403   7.312  12.145  0.5875  0.0714  0.3821
 4213UDC     C546337   9.365   7.367  12.010 -0.0678 -0.2847  0.5656
 4213UDC     C646338   9.250   7.470  12.001  0.0891 -0.2543 -0.6901
 4213UDC     C746339   9.211   7.521  11.863  0.7930  0.2612  0.9748
 4213UDC     C846340   9.109   7.434  11.784  0.8629  0.6195 -0.9998
 4213UDC     C946341   9.143   7.451  11.631 -0.6208 -0.4382  0.1756
 4213UDC    C1046342   9.123   7.587  11.564  0.0880  1.1827 -0.1101
 4213UDC    C1146343   8.976   7.636  11.579 -1.2329  0.1918  1.2549
 4214UDC     C146344  16.539   9.495  10.600  0.1209  1.0340 -0.3294
 4214UDC     C246345  16.563   9.442  10.744  0.3844 -0.2540  0.3644
 4214UDC     C346346  16.688   9.373  10.783 -0.4561  0.4427  0.2944
 4214UDC     C446347  16.728   9.239  10.715  0.6813  0.4829 -0.7048
 4214UDC     C546348  16.862   9.196  10.772  0.8672 -0.2426 -0.0291
 4214UDC     C646349  16.976   9.300  10.748  0.8210 -0.6630 -0.4232
 4214UDC     C746350  17.106   9.263  10.831 -0.6051 -0.5202  0.5387
 4214UDC     C846351  17.230   9.348  10.804 -1.0026 -0.2154  0.4745
 4214UDC     C946352  17.342   9.321  10.901 -0.5434  0.4416 -1.0717
 4214UDC    C1046353  17.415   9.195  10.854 -0.5309 -0.2699  0.5537
 4214UDC    C1146354  17.538   9.139  10.937 -0.2150 -0.3308  0.0072
 4215UDC     C146355  12.874   5.641   4.594 -0.3374 -0.6429 -0.3351
 4215UDC     C246356  13.006   5.694   4.641  0.8025 -0.3655  0.1755
 4215UDC     C346357  13.121   5.600   4.605  0.0389  0.0171  1.5405
 4215UDC     C446358  13.252   5.675   4.647 -0.1659  0.8007 -0.5744
 4215UDC     C546359  13.335   5.714   4.522  0.2286  0.4345  0.3231
 4215UDC     C646360  13.435   5.601   4.513 -0.4964 -0.0085 -0.7145
 4215UDC     C746361  13.563   5.685   4.471 -0.2890  0.5787 -0.2515
 4215UDC     C846362  13.579   5.761   4.340 -0.3716 -0.3995  0.9025
 4215UDC     C946363  13.718   5.820   4.310  0.7328  0.2075 -1.3845
 4215UDC    C1046364  13.831   5.733   4.263 -1.2135  0.8908  1.0404
 4215UDC    C1146365  13.942   5.832   4.234  0.3226  0.5414  0.1982
 4216UDC     C146366  19.756  16.777   1.245 -0.2835 -0.0920  0.0810
 4216UDC     C246367  19.809  16.874   1.133 -0.3086  0.3239 -0.6736
 4216UDC     C346368  19.919  16.795   1.064  0.2618 -0.3956 -0.3679
 4216UDC     C446369  20.012  16.863   0.965  0.6275 -0.4259  0.4844
 4216UDC     C546370  20.139  16.920   1.027 -0.1019  0.1030 -0.5219
 4216UDC     C646371  20.243  16.992   0.930  1.1382  0.6515  1.4453
 4216UDC     C746372  20.196  17.086   0.825 -0.5466  0.2209  0.4764
 4216UDC     C846373  20.294  17.167   0.741 -0.5422  0.5720 -0.1468
 4216UDC     C946374  20.245  17.225   0.609 -0.2588  0.3087  0.3720
 4216UDC    C1046375  20.210  17.376   0.609  0.3384 -0.2952  0.2470
 4216UDC    C1146376  20.104  17.429   0.703 -0.5304  1.0646  0.1642
 4217UDC     C146377   2.549   4.343   2.338 -0.9461  0.6284 -0.1720
 4217UDC     C246378   2.441   4.338   2.447  0.9916  0.9433  0.2047
 4217UDC     C346379   2.363   4.475   2.450  0.1792  0.1282  0.0697
 4217UDC     C446380   2.442   4.605   2.425 -0.4870 -0.4443  0.1080
 4217UDC     C546381   2.512   4.677   2.549 -1.2475 -0.0186 -0.4949
 4217UDC     C646382   2.436   4.798   2.603 -0.0319 -0.0631 -0.4689
 4217UDC     C746383   2.500   4.867   2.717 -0.0282 -0.9093 -0.6076
 4217UDC     C846384   2.544   4.782   2.845  0.2008  1.1558 -0.0575
 4217UDC     C946385   2.572   4.872   2.961 -0.2737 -0.0368  1.0762
 4217UDC    C1046386   2.714   4.936   2.973 -0.2386 -0.1781  0.3095
 4217UDC    C1146387   2.834   4.866   2.907  0.1445  1.3123  0.0014
 4218UDC     C146388  12.094  10.647   5.931  0.7879  0.5448 -0.5403
 4218UDC     C246389  12.166  10.598   6.065  0.5335  0.3253  0.0689
 4218UDC     C346390  12.292  10.661   6.117 -0.3820 -0.5125 -0.3691
 4218UDC     C446391  12.367  10.569   6.205  0.3716 -0.7053 -0.1697
 4218UDC     C546392  12.475  10.648   6.283 -0.1149 -0.5330 -0.5282
 4218UDC     C646393  12.578  10.575   6.368 -0.7816 -0.0942 -0.9312
 4218UDC     C746394  12.500  10.513   6.480  1.1448  1.1688  0.2770
 4218UDC     C846395  12.573  10.401   6.544  0.0752  1.0166  0.9184
 4218UDC     C946396  12.583  10.279   6.456 -1.4942 -0.1225  0.1678
 4218UDC    C1046397  12.655  10.155   6.518  0.3041 -0.4313 -0.1732
 4218UDC    C1146398  12.807  10.166   6.515  0.1989  0.6061  0.6254
 4219UDC     C146399  17.593  11.317  13.177  0.6026 -0.0589  0.3976
 4219UDC     C246400  17.514  11.428  13.250  0.0467  1.4155 -1.0392
 4219UDC     C346401  17.516  11.408  13.406  0.1928 -0.2299 -0.1084
 4219UDC     C446402  17.650  11.404  13.485 -0.5317  0.3498 -0.7175
 4219UDC     C546403  17.626  11.317  13.614  0.3314 -0.2900  0.9162
 4219UDC     C646404  17.740  11.276  13.711  1.1034 -0.0019 -1.2681
 4219UDC     C746405  17.823  11.405  13.736  0.1768 -0.7893  0.4830
 4219UDC     C846406  17.961  11.367  13.679  0.3065 -0.6107  0.9466
 4219UDC     C946407  18.053  11.484  13.659 -0.4919 -0.3232 -0.0078
 4219UDC    C1046408  18.170  11.435  13.571  0.8982 -0.3267 -0.4099
 4219UDC    C1146409  18.171  11.494  13.438 -0.3739 -0.6145 -1.2315
 4220UDC     C146410   6.942   9.587  15.418  0.3722 -0.8650 -0.3935
 4220UDC     C246411   6.823   9.655  15.356 -0.0277  0.8696  0.3226
 4220UDC     C346412   6.862   9.795  15.304 -0.0691 -0.0782 -0.3017
 4220UDC     C446413   6.745   9.899  15.304 -0.3431  0.7167  0.3649
 4220UDC     C546414   6.671   9.916  15.444  0.3398 -0.3222  0.5858
 4220UDC     C646415   6.536  10.000  15.458 -0.8126 -0.1469  0.3393
 4220UDC     C746416   6.560  10.095  15.584  0.8371 -0.2923  1.4263
 4220UDC     C846417   6.432  10.159  15.645  1.4081  0.2992  1.4454
 4220UDC     C946418   6.453  10.252  15.769 -0.0878  0.6646  0.9728
 4220UDC    C1046419   6.313  10.313  15.786  0.3403  0.3328 -0.4037
 4220UDC    C1146420   6.297  10.381  15.922  0.0579  0.3801  0.3797
 4221UDC     C146421   0.954  13.733   8.548  0.4565 -0.4739  0.0376
 4221UDC     C246422   1.030  13.827   8.449  0.7314 -0.0485 -0.0933
 4221UDC     C346423   1.091  13.964   8.495  0.4067 -0.1765  0.5392
 4221UDC     C446424   1.133  14.036   8.364 -0.7081  0.3038 -0.1749
 4221UDC     C546425   1.248  13.966   8.286 -0.3059 -0.7925 -0.0754
 4221UDC     C646426   1.232  14.004   8.134 -0.5920  0.7172  1.1441
 4221UDC     C746427   1.118  13.941   8.056  1.5728 -0.8076  0.5999
 4221UDC     C846428   1.142  13.791   8.043 -0.1653  0.1725  0.6255
 4221UDC     C946429   1.044  13.722   7.931 -0.5107 -0.3448 -0.8122
 4221UDC    C1046430   0.894  13.702   7.968 -0.0950 -0.6602  0.4691
 4221UDC    C1146431   0.861  13.646   8.109  0.5368  0.0494  0.4651
 4222UDC     C146432   1.925   8.322   0.239  1.4837 -0.0889 -0.2274
 4222UDC     C246433   1.963   8.225   0.355 -0.3245 -0.1957 -0.5703
 4222UDC     C346434   2.108   8.202   0.373 -0.1390 -0.9158  1.2212
 4222UDC     C446435   2.200   8.187   0.494 -0.7306 -0.9276  1.0879
 4222UDC     C546436   2.352   8.185   0.456 -0.4159  0.9945 -0.9751
 4222UDC     C646437   2.447   8.210   0.572 -0.3206  1.1549  0.6146
 4222UDC     C746438   2.593   8.208   0.515 -0.9081 -0.3136  0.3881
 4222UDC     C846439   2.646   8.087   0.437 -0.1799 -0.6212 -0.4424
 4222UDC     C946440   2.797   8.079   0.386 -0.3645  0.1947  0.4136
 4222UDC    C1046441   2.783   8.066   0.230 -0.5744 -0.2076  0.1697
 4222UDC    C1146442   2.918   8.085   0.157  0.9684 -1.4766 -0.1589
 4223UDC     C146443  18.282   9.583   3.921 -0.1414 -0.2747  0.5838
 4223UDC     C246444  18.389   9.688   3.948 -0.2211  0.5332 -0.6117
 4223UDC     C346445  18.505   9.629   4.033 -0.6350  0.5455  0.6683
 4223UDC     C446446  18.617   9.730   4.023  0.9915 -0.0833 -0.5282
 4223UDC     C546447  18.599   9.844   4.126  0.7887  0.1890 -0.8603
 4223UDC     C646448  18.709   9.950   4.154 -0.6760 -0.4352 -0.0582
 4223UDC     C746449  18.675  10.065   4.247 -0.4009 -0.0499  0.0670
 4223UDC     C846450  18.761  10.193   4.261  0.1466  0.5093  0.8773
 4223UDC     C946451  18.897  10.192   4.330 -0.0061  0.6013 -0.1581
 4223UDC    C1046452  18.975  10.319   4.286  0.2770 -0.5006 -0.4421
 4223UDC    C1146453  19.115  10.359   4.353 -0.3528 -0.3911 -0.1659
 4224UDC     C146454  15.381   7.442  17.877  0.1763 -0.0807  1.2640
 4224UDC     C246455  15.409   7.554  17.780 -0.4666  0.8365 -0.6574
 4224UDC     C346456  15.420   7.694  17.845  0.8711 -0.0051 -0.6342
 4224UDC     C446457  15.488   7.788  17.746  0.6251 -1.2625  0.3082
 4224UDC     C546458  15.546   7.897  17.834  0.5759  0.1652 -0.1342
 4224UDC     C646459  15.445   7.953  17.933 -0.4754 -0.1889 -0.8057
 4224UDC     C746460  15.532   8.015  18.050  0.8166  0.8616  0.1010
 4224UDC     C846461  15.545   8.162  18.084  0.2642 -0.4223  0.9544
 4224UDC     C946462  15.604   8.273  17.973 -0.1115  0.4794 -0.7802
 4224UDC    C1046463  15.610   8.419  18.032  1.1988  0.5463  0.4364
 4224UDC    C1146464  15.629   8.528  17.924 -0.2712 -0.9776 -0.6640
 4225UDC     C146465   0.981   6.187  13.104 -0.3545 -0.0081  0.5937
 4225UDC     C246466   0.891   6.062  13.094 -0.9156  0.1433 -0.1761
 4225UDC     C346467   0.878   5.966  12.970 -0.1297  0.2578  0.3107
 4225UDC     C446468   0.750   5.887  12.976  0.0219 -0.2772 -0.5812
 4225UDC     C546469   0.746   5.778  12.866 -0.2700  0.3676 -1.1682
 4225UDC     C646470   0.625   5.682  12.887  0.7100 -0.6440 -0.4040
 4225UDC     C746471   0.610   5.565  12.786  0.1913  0.3168 -1.4099
 4225UDC     C846472   0.463   5.525  12.749 -0.6593 -0.6661 -0.4725
 4225UDC     C946473   0.441   5.459  12.618  1.0245  0.7829 -0.4441
 4225UDC    C1046474   0.452   5.532  12.487 -0.0017  0.5142  0.7007
 4225UDC    C1146475   0.608   5.555  12.450  0.2454  0.4354  0.4698
 4226UDC     C146476  17.525  12.579   1.923  0.3868 -0.6811 -0.1974
 4226UDC     C246477  17.583  12.435   1.962 -0.2301  0.5435 -0.6185
 4226UDC     C346478  17.533  12.323   1.875  0.1206 -0.8927 -0.7092
 4226UDC     C446479  17.503  12.186   1.940  0.1615 -0.5451 -0.7408
 4226UDC     C546480  17.395  12.200   2.047 -0.5301 -0.4892  1.2140
 4226UDC     C646481  17.259  12.232   1.994 -0.5346  0.1213  0.6306
 4226UDC     C746482  17.160  12.177   2.093 -0.0039 -0.7026 -0.0872
 4226UDC     C846483  17.181  12.035   2.141 -1.1571 -0.1456  0.2184
 4226UDC     C946484  17.099  12.003   2.262  1.0572 -0.4174  0.3405
 4226UDC    C1046485  17.147  11.860   2.301 -0.3372 -0.2114  0.2754
 4226UDC    C1146486  17.082  11.824   2.442 -0.9123  0.2601 -0.2919
 4227UDC     C146487   3.973   9.614  17.112  0.1261 -0.3667 -0.2824
 4227UDC     C246488   3.854   9.621  17.022  0.2416 -0.0759 -0.0555
 4227UDC     C346489   3.856   9.501  16.921  0.9833 -0.3191 -0.1126
 4227UDC     C446490   3.730   9.500  16.826 -0.2078  0.3926 -0.8034
 4227UDC     C546491   3.723   9.380  16.731 -0.0310 -0.9630 -0.1208
 4227UDC     C646492   3.630   9.385  16.611 -0.1408  1.0075 -1.4254
 4227UDC     C746493   3.550   9.256  16.625  0.0488  0.1130  0.4669
 4227UDC     C846494   3.460   9.274  16.743  0.3590  0.7217  0.3943
 4227UDC     C946495   3.325   9.199  16.728  0.6429 -0.8572 -0.9877
 4227UDC    C1046496   3.197   9.239  16.813 -1.1652  0.8750  0.7831
 4227UDC    C1146497   3.159   9.380  16.772  1.1110  1.7992 -1.1972
 4228UDC     C146498  14.395  18.716   4.592  0.6008  0.5123 -0.1719
 4228UDC     C246499  14.291  18.600   4.600 -0.4373 -0.3629  0.1039
 4228UDC     C346500  14.346  18.469   4.661  0.1990 -0.0916 -0.0268
 4228UDC     C446501  14.268  18.351   4.616  0.3348 -0.5238 -0.2223
 4228UDC     C546502  14.349  18.220   4.618  0.0360 -0.6872  0.1044
 4228UDC     C646503  14.306  18.106   4.525 -0.6203  0.3385 -1.7690
 4228UDC     C746504  14.164  18.056   4.545  0.7795 -0.7853 -0.0536
 4228UDC     C846505  14.097  17.985   4.429  0.3234 -0.2092 -0.8008
 4228UDC     C946506  14.155  17.854   4.394  0.7424  0.3328  0.3092
 4228UDC    C1046507  14.118  17.739   4.489 -0.0310  0.1844 -0.2096
 4228UDC    C1146508  14.248  17.695   4.561  0.4503 -0.3275 -0.4711
 4229UDC     C146509   3.983  15.733  11.584  0.6274 -0.4028  0.0484
 4229UDC     C246510   4.006  15.718  11.430  0.0101 -0.0508 -0.8080
 4229UDC     C346511   4.151  15.675  11.379 -0.2887 -0.4478  1.3393
 4229UDC     C446512   4.188  15.682  11.232 -1.1900  0.2045 -0.0031
 4229UDC     C546513   4.186  15.818  11.172 -0.4923  0.7935  1.6282
 4229UDC     C646514   4.268  15.822  11.040 -0.5570  0.3734  0.5559
 4229UDC     C746515   4.283  15.967  10.997 -1.4057  0.4157 -0.2163
 4229UDC     C846516   4.355  15.967  10.864  0.6893  0.8175  0.4483
 4229UDC     C946517   4.486  15.877  10.854  0.7797 -1.6296 -0.9403
 4229UDC    C1046518   4.543  15.808  10.733  0.6391 -0.4056  0.2248
 4229UDC    C1146519   4.651  15.706  10.771 -0.8394  0.2927  1.0051
 4230UDC     C146520  13.941  10.190  17.986 -1.1870 -0.5383  0.3839
 4230UDC     C246521  13.923  10.348  17.984  0.4693  0.8369  0.2320
 4230UDC     C346522  13.815  10.394  17.879 -0.3945 -0.0923  0.4234
 4230UDC     C446523  13.744  10.523  17.914  0.9984  0.3729 -0.5121
 4230UDC     C546524  13.651  10.596  17.817  0.6922 -0.0824  2.1187
 4230UDC     C646525  13.594  10.738  17.851 -0.3929 -0.3451  0.2839
 4230UDC     C746526  13.474  10.773  17.760  0.5519  0.8414 -0.2659
 4230UDC     C846527  13.407  10.905  17.795  0.7616 -0.7501  0.8321
 4230UDC     C946528  13.268  10.915  17.725  0.1551  0.4033 -0.1996
 4230UDC    C1046529  13.234  11.041  17.640 -0.6991  1.0155  0.9384
 4230UDC    C1146530  13.200  11.154  17.737 -0.2289  0.0170  0.0644
 4231UDC     C146531  15.130   7.307  16.233  0.7433 -0.8657 -0.1350
 4231UDC     C246532  15.284   7.319  16.225 -0.3763  0.6308  0.3687
 4231UDC     C346533  15.373   7.188  16.200  1.3180  0.5175 -0.2856
 4231UDC     C446534  15.363   7.140  16.050 -0.0948 -0.0865 -0.2274
 4231UDC     C546535  15.353   7.258  15.960  1.1405  0.0025  0.3918
 4231UDC     C646536  15.484   7.297  15.892  0.3429 -0.2494 -0.3472
 4231UDC     C746537  15.558   7.181  15.829 -0.4321  0.1684 -0.0218
 4231UDC     C846538  15.673   7.219  15.733  0.5111 -0.4686 -0.1523
 4231UDC     C946539  15.716   7.094  15.656  0.4907 -0.5467  0.5473
 4231UDC    C1046540  15.824   7.021  15.737  0.2271 -1.1122  1.1511
 4231UDC    C1146541  15.962   7.048  15.690 -0.4199  0.7440  0.4565
 4232UDC     C146542   2.559   5.094   9.700  0.1348 -1.1907 -0.3600
 4232UDC     C246543   2.496   5.227   9.757  0.8688 -1.2840  0.8003
 4232UDC     C346544   2.351   5.239   9.805  0.1101  0.6222  0.5462
 4232UDC     C446545   2.233   5.193   9.713 -0.0422 -0.1730  0.4273
 4232UDC     C546546   2.246   5.258   9.573  0.1859  0.2900  0.3610
 4232UDC     C646547   2.163   5.195   9.454 -0.0104  0.4750 -1.6239
 4232UDC     C746548   2.013   5.211   9.495 -0.6976  0.6986  0.5166
 4232UDC     C846549   1.900   5.123   9.427  0.0833  0.3283 -0.1025
 4232UDC     C946550   1.764   5.141   9.492 -0.4209  0.4530  0.2231
 4232UDC    C1046551   1.721   5.089   9.635 -0.7416  0.7704  0.3051
 4232UDC    C1146552   1.568   5.077   9.634 -0.0302  0.3365 -0.4071
 4233UDC     C146553  10.876  14.038  10.695  0.5377  1.5813 -0.7331
 4233UDC     C246554  10.992  14.128  10.722 -0.5069  0.9413  0.5424
 4233UDC     C346555  11.099  14.055  10.817 -0.1382 -0.9477  0.8780
 4233UDC     C446556  11.206  14.151  10.868  0.0156 -0.8631 -0.2889
 4233UDC     C546557  11.164  14.257  10.972 -0.2366  0.3282 -0.6922
 4233UDC     C646558  11.278  14.340  11.029 -0.6921 -0.2915 -1.2215
 4233UDC     C746559  11.214  14.439  11.135  1.1915  0.5883 -0.2367
 4233UDC     C846560  11.307  14.477  11.251  0.0838 -0.9482 -0.1027
 4233UDC     C946561  11.392  14.364  11.291  0.2870 -0.4011  0.2070
 4233UDC    C1046562  11.487  14.409  11.407  0.2142 -0.4623  0.3701
 4233UDC    C1146563  11.625  14.343  11.403  0.7264 -0.1056 -0.2302
 4234UDC     C146564  12.314   7.218   2.887 -0.2600 -0.7628 -0.4911
 4234UDC     C246565  12.437   7.136   2.916 -0.1629 -0.0441  0.4780
 4234UDC     C346566  12.411   6.991   2.951  0.2283 -0.4854 -0.3216
 4234UDC     C446567  12.436   6.952   3.097 -0.2163  0.4358 -0.4309
 4234UDC     C546568  12.583   6.963   3.144 -0.3124  0.6857 -0.3352
 4234UDC     C646569  12.610   6.864   3.258  0.2050  0.2401 -0.9037
 4234UDC     C746570  12.611   6.715   3.214  0.1240 -0.1894  1.2721
 4234UDC     C846571  12.614   6.618   3.332 -0.7405 -0.1659 -0.0120
 4234UDC     C946572  12.488   6.524   3.354  0.2606 -0.8154 -0.1730
 4234UDC    C1046573  12.482   6.464   3.498  0.5899 -0.1530 -0.5269
 4234UDC    C1146574  12.485   6.550   3.626  2.4907 -1.1168  0.3193
 4235UDC     C146575   2.848  12.148  18.072  1.1677 -0.2507 -1.0953
 4235UDC     C246576   2.963  12.204  17.987  0.6205 -0.2661 -0.5328
 4235UDC     C346577   3.040  12.088  17.913  0.2685 -0.1647  0.6083
 4235UDC     C446578   3.082  12.120  17.767  0.3372 -0.6080  0.1898
 4235UDC     C546579   3.128  12.024  17.659 -0.1800 -0.7684  1.0710
 4235UDC     C646580   3.012  11.999  17.561  0.5972 -0.2406  1.2472
 4235UDC     C746581   3.024  11.901  17.441  0.2536 -0.3566  0.8441
 4235UDC     C846582   3.053  11.967  17.304  0.2675  0.9550 -1.1316
 4235UDC     C946583   2.943  12.051  17.238  0.3436 -0.6255  0.4121
 4235UDC    C1046584   3.009  12.110  17.107  0.7394  0.5249 -1.5365
 4235UDC    C1146585   3.082  12.239  17.148  0.0868 -0.0716 -0.1623
 4236UDC     C146586  19.081  12.666  15.470  0.1804 -0.2385  1.2663
 4236UDC     C246587  19.135  12.522  15.456 -0.6478  0.1675 -0.5854
 4236UDC     C346588  19.026  12.415  15.456 -0.8201  0.9048  0.4905
 4236UDC     C446589  19.095  12.275  15.440 -0.3069  0.7181 -0.5665
 4236UDC     C546590  18.974  12.171  15.430 -0.2431 -0.6060  0.3166
 4236UDC     C646591  18.882  12.189  15.307  0.2866 -0.1222  0.3008
 4236UDC     C746592  18.741  12.156  15.334 -0.1701  0.1464 -0.2978
 4236UDC     C846593  18.657  12.273  15.391 -0.1155  0.4633  0.3060
 4236UDC     C946594  18.690  12.415  15.326 -0.0874 -0.2527 -0.6329
 4236UDC    C1046595  18.643  12.524  15.426  0.5555 -0.0307 -0.3143
 4236UDC    C1146596  18.700  12.653  15.362  0.6468 -0.5962 -1.2418
 4237UDC     C146597  17.569  18.007   6.140  0.3882 -0.1487  0.2507
 4237UDC     C246598  17.690  18.067   6.203 -0.8561 -0.2290  0.1448
 4237UDC     C346599  17.805  18.061   6.107 -0.2122  0.1755  0.7287
 4237UDC     C446600  17.827  18.179   6.002  0.1760 -0.3250 -0.4280
 4237UDC     C546601  17.979  18.190   5.963  0.6226 -0.1238  1.8845
 4237UDC     C646602  17.968  18.302   5.861  0.1945 -0.4600 -0.2302
 4237UDC     C746603  17.949  18.429   5.942 -0.6409 -0.3868 -0.3951
 4237UDC     C846604  17.961  18.565   5.869  0.3195  0.8221 -0.2071
 4237UDC     C946605  17.953  18.673   5.977  1.1824  0.0758  0.6112
 4237UDC    C1046606  17.834  18.772   5.958  1.2591 -0.8612 -0.9328
 4237UDC    C1146607  17.688  18.730   5.996  0.0962  0.3907  0.1674
 4238UDC     C146608  17.270   5.652   0.813  0.1867  1.0309 -0.0416
 4238UDC     C246609  17.339   5.670   0.682 -0.9304 -0.9185 -0.3815
 4238UDC     C346610  17.257   5.650   0.557  0.1294 -0.4715  0.4122
 4238UDC     C446611  17.280   5.728   0.423  0.2158 -0.4924  0.9207
 4238UDC     C546612  17.166   5.720   0.310  0.0833  0.2095 -0.0326
 4238UDC     C646613  17.200   5.786   0.178  0.3312  0.0340  0.2922
 4238UDC     C746614  17.080   5.837   0.103 -0.7073 -0.4211  1.1772
 4238UDC     C846615  17.004   5.969   0.140 -0.6728  0.7564  0.4925
 4238UDC     C946616  16.871   5.940   0.204 -0.7418 -0.2417  0.3863
 4238UDC    C1046617  16.799   6.066   0.235 -1.0305 -0.8189 -0.5060
 4238UDC    C1146618  16.659   6.041   0.291 -0.0086 -0.2790 -0.0224
 4239UDC     C146619   4.205  10.689   2.833 -0.5390 -0.1019 -0.6114
 4239UDC     C246620   4.309  10.604   2.901 -0.7545 -0.1483  0.4300
 4239UDC     C346621   4.392  10.665   3.017  0.0590 -0.4819  0.5765
 4239UDC     C446622   4.411  10.566   3.131 -0.4634 -0.1016 -0.3653
 4239UDC     C546623   4.554  10.514   3.143 -0.9050  0.8919  0.0812
 4239UDC     C646624   4.652  10.629   3.151 -0.1267  0.6192 -0.4724
 4239UDC     C746625   4.800  10.585   3.147  0.6198 -0.2385  0.0700
 4239UDC     C846626   4.902  10.701   3.141  0.6590  0.4397 -0.1041
 4239UDC     C946627   4.849  10.820   3.058  0.8288 -0.4854 -0.1344
 4239UDC    C1046628   4.854  10.793   2.906 -0.0792 -0.4001  0.1818
 4239UDC    C1146629   4.982  10.785   2.825 -0.5341 -0.3017 -0.5755
 4240UDC     C146630  18.311   7.287   6.366  0.2662  1.3833  0.4152
 4240UDC     C246631  18.433   7.224   6.289  0.0899 -1.0801  0.2063
 4240UDC     C346632  18.538   7.321   6.226  0.3215  0.3725  0.7962
 4240UDC     C446633  18.561   7.258   6.093 -1.0523 -0.1537  0.6617
 4240UDC     C546634  18.580   7.361   5.985  0.3032 -0.0173  0.9583
 4240UDC     C646635  18.627   7.321   5.836  0.6645 -0.0333 -0.1933
 4240UDC     C746636  18.632   7.429   5.731  0.0743 -0.7062 -0.0437
 4240UDC     C846637  18.499   7.506   5.745  0.2854 -0.1545  0.4685
 4240UDC     C946638  18.477   7.650   5.687  0.3367  0.0485 -0.8486
 4240UDC    C1046639  18.388   7.739   5.782 -0.5499  0.3120  0.3232
 4240UDC    C1146640  18.429   7.882   5.756 -0.0736  0.4108  0.1635
 4241UDC     C146641   2.273   0.214  17.676 -0.2091 -0.7013 -0.0193
 4241UDC     C246642   2.296   0.227  17.821  1.3107 -0.1967 -0.0918
 4241UDC     C346643   2.444   0.230  17.873  1.0653  0.4977 -0.1720
 4241UDC     C446644   2.522   0.099  17.860  0.2012  0.1836 -0.3936
 4241UDC     C546645   2.498  -0.011  17.962  0.4166  0.7828  0.8317
 4241UDC     C646646   2.607  -0.113  17.941  0.7345 -0.0142 -1.1188
 4241UDC     C746647   2.613  -0.202  17.819 -0.4565  0.2333 -0.3962
 4241UDC     C846648   2.735  -0.306  17.810  0.0260  0.3735  0.8022
 4241UDC     C946649   2.859  -0.216  17.772  0.8288 -1.1748 -1.3003
 4241UDC    C1046650   2.926  -0.164  17.907  0.4113  0.0919  0.3930
 4241UDC    C1146651   3.072  -0.113  17.909  0.8049  0.1004  0.6210
 4242UDC     C146652  11.433   0.129   1.936 -0.4958  0.9736  0.3864
 4242UDC     C246653  11.480   0.055   1.811 -0.0279  0.2197 -0.2934
 4242UDC     C346654  11.622   0.000   1.822 -1.5318 -0.5440 -0.1588
 4242UDC     C446655  11.650  -0.113   1.915 -0.7249 -0.3460 -0.5139
 4242UDC     C546656  11.621  -0.258   1.857  0.1384 -0.5328 -0.4098
 4242UDC     C646657  11.666  -0.367   1.954  1.1594 -0.4760 -0.1349
 4242UDC     C746658  11.786  -0.348   2.047  0.4859 -1.2349  0.2304
 4242UDC     C846659  11.820  -0.414   2.181 -0.0778 -0.1559 -0.1155
 4242UDC     C946660  11.968  -0.391   2.226  0.4205  0.7577  0.3940
 4242UDC    C1046661  12.073  -0.474   2.154  0.1393 -0.1754 -0.6632
 4242UDC    C1146662  12.059  -0.625   2.123  0.5110  0.7914  0.4357
 4243UDC     C146663  19.406  17.607   5.323 -0.2195 -0.3855  0.4643
 4243UDC     C246664  19.473  17.585   5.189  1.1796  0.6991  0.0872
 4243UDC     C346665  19.616  17.530   5.222  0.9125  0.7647 -1.0853
 4243UDC     C446666  19.689  17.481   5.099  0.8169 -0.4757  1.2043
 4243UDC     C546667  19.597  17.379   5.028  1.0828  0.4686  0.9990
 4243UDC     C646668  19.679  17.320   4.908  0.9692  0.1558  0.1300
 4243UDC     C746669  19.781  17.203   4.947  0.2416 -0.9233  0.0375
 4243UDC     C846670  19.732  17.087   5.035 -1.0313  0.0217 -0.1383
 4243UDC     C946671  19.843  16.975   5.052  0.7541  0.4684  0.4842
 4243UDC    C1046672  19.797  16.838   5.113  0.9180  1.1365 -0.4970
 4243UDC    C1146673  19.706  16.749   5.027  0.6146 -0.5972 -0.4697
 4244UDC     C146674  17.583  19.453   2.111 -0.3855  0.1575  1.0913
 4244UDC     C246675  17.699  19.390   2.026  0.1677  0.9416  0.3675
 4244UDC     C346676  17.824  19.474   2.003 -0.1459 -0.4678 -0.0229
 4244UDC     C446677  17.950  19.423   1.927 -1.3527  0.9855  0.1093
 4244UDC     C546678  18.083  19.495   1.916 -0.1648 -0.6380 -0.4759
 4244UDC     C646679  18.208  19.435   1.849 -0.1656  0.1708 -1.3769
 4244UDC     C746680  18.350  19.483   1.882 -0.0829  0.1221  0.1639
 4244UDC     C846681  18.368  19.432   2.031  0.3962 -0.3126 -0.4577
 4244UDC     C946682  18.497  19.482   2.102  0.2980  1.1227 -1.3322
 4244UDC    C1046683  18.633  19.446   2.035  0.3665 -0.4264  0.3227
 4244UDC    C1146684  18.759  19.447   2.125  0.0146 -0.0215 -0.7371
 4245UDC     C146685   9.391   8.709  15.122 -0.2718 -0.3127 -0.3691
 4245UDC     C246686   9.460   8.833  15.056 -0.2524 -0.6096 -0.2598
 4245UDC     C346687   9.575   8.804  14.966 -1.0042  0.2451  1.1792
 4245UDC     C446688   9.677   8.909  14.928 -0.2299 -0.3656  0.8029
 4245UDC     C546689   9.813   8.882  14.852  1.0420 -0.1201 -0.5134
 4245UDC     C646690   9.906   8.799  14.933 -0.6188 -0.3362 -0.6584
 4245UDC     C746691  10.064   8.800  14.910 -0.1357 -0.6174  0.6035
 4245UDC     C846692  10.147   8.844  15.032  0.1326 -0.4678  0.5823
 4245UDC     C946693  10.199   8.729  15.119 -0.4148 -0.0100  1.3703
 4245UDC    C1046694  10.305   8.642  15.046  0.7099  0.1622 -0.1486
 4245UDC    C1146695  10.389   8.556  15.144  0.0562 -0.4795 -0.8846
 4246UDC     C146696  18.498  18.081  17.674  0.2474 -0.0735  0.1193
 4246UDC     C246697  18.619  17.987  17.675  0.7486 -0.0187 -1.3446
 4246UDC     C346698  18.735  18.049  17.758  0.6001  1.1760  0.4119
 4246UDC     C446699  18.700  18.118  17.888  1.3005  0.1953 -0.3729
 4246UDC     C546700  18.683  18.019  18.002 -0.0161 -0.4276  0.6799
 4246UDC     C646701  18.550  18.041  18.084 -0.8171  0.1383 -0.3414
 4246UDC     C746702  18.421  18.103  18.021 -0.0090  0.5924 -1.2467
 4246UDC     C846703  18.299  18.145  18.102 -0.3796  1.1634 -0.7186
 4246UDC     C946704  18.189  18.226  18.030 -0.3674  0.8325  0.8915
 4246UDC    C1046705  18.105  18.308  18.126  1.3384  0.1094  0.3401
 4246UDC    C1146706  17.972  18.240  18.175  0.2441  0.8034 -0.4821
 4247UDC     C146707  15.927  19.028  11.422  1.6084 -1.0531 -0.0652
 4247UDC     C246708  15.976  18.970  11.281  1.5727 -0.6737 -0.5275
 4247UDC     C346709  16.115  18.909  11.276  0.2768  0.2907 -0.2599
 4247UDC     C446710  16.148  18.825  11.154  0.5229  0.5118 -0.9608
 4247UDC     C546711  16.251  18.871  11.054  0.2289 -0.4113  0.2020
 4247UDC     C646712  16.332  18.736  11.041  0.7749 -0.1516 -0.0685
 4247UDC     C746713  16.318  18.683  10.903 -0.8930  0.0330  0.3900
 4247UDC     C846714  16.369  18.547  10.852 -0.1464  1.1861 -1.0295
 4247UDC     C946715  16.326  18.514  10.702 -0.1647  0.5310 -0.3454
 4247UDC    C1046716  16.389  18.581  10.582 -0.0793  0.6094 -1.2361
 4247UDC    C1146717  16.343  18.530  10.441 -0.0897 -0.0470 -0.0391
 4248UDC     C146718   1.763   2.845   7.583  0.1671 -0.1534 -0.9439
 4248UDC     C246719   1.649   2.768   7.639  1.0627  0.4982 -0.0373
 4248UDC     C346720   1.684   2.627   7.671 -0.0193  0.4793  0.1366
 4248UDC     C446721   1.759   2.606   7.808  0.8081 -0.1470  0.2838
 4248UDC     C546722   1.815   2.463   7.817  1.0978  0.4947  1.3059
 4248UDC     C646723   1.858   2.411   7.953 -0.0265  0.7440  0.5007
 4248UDC     C746724   1.960   2.298   7.939  0.1050 -1.2572 -0.5647
 4248UDC     C846725   1.924   2.173   8.030 -0.0620 -1.9241 -0.0059
 4248UDC     C946726   1.998   2.058   7.965 -0.1095 -1.1760 -0.3622
 4248UDC    C1046727   2.148   2.091   7.950 -0.4433 -0.6972 -0.8209
 4248UDC    C1146728   2.235   1.962   7.945 -1.1737 -0.4597  0.4855
 4249UDC     C146729   5.656   0.602   8.049  0.5678 -0.9538  0.2618
 4249UDC     C246730   5.621   0.481   7.954  0.1473 -1.3951 -0.1046
 4249UDC     C346731   5.710   0.458   7.834 -0.2145  0.9189  0.1689
 4249UDC     C446732   5.666   0.359   7.716  0.1585 -0.4078  0.2104
 4249UDC     C546733   5.566   0.429   7.627 -0.4877 -0.1835  0.0896
 4249UDC     C646734   5.420   0.425   7.671  0.2749  0.1539  0.2249
 4249UDC     C746735   5.300   0.491   7.593 -0.2487  0.0373 -0.0096
 4249UDC     C846736   5.167   0.425   7.639  0.0233  1.3195  0.6120
 4249UDC     C946737   5.037   0.475   7.572 -0.4324 -0.4903 -0.7654
 4249UDC    C1046738   4.987   0.443   7.427 -0.7137 -0.4674  0.4348
 4249UDC    C1146739   4.876   0.527   7.373 -0.2992  0.0206  0.5647
 4250UDC     C146740   4.525  19.796  10.143 -0.0431  0.1232  0.2203
 4250UDC     C246741   4.438  19.767  10.263  0.4016 -0.8715 -0.4260
 4250UDC     C346742   4.399  19.887  10.349 -0.6748  0.1766  0.7488
 4250UDC     C446743   4.293  19.835  10.456  0.3596 -0.0668  0.6050
 4250UDC     C546744   4.270  19.924  10.578  0.8729  0.7379 -0.4651
 4250UDC     C646745   4.126  19.925  10.633 -0.0077  0.6316 -0.5970
 4250UDC     C746746   4.106  19.817  10.738 -0.5597 -0.8729  0.9855
 4250UDC     C846747   3.969  19.771  10.778 -0.1623 -1.2125 -0.1518
 4250UDC     C946748   3.894  19.880  10.857  0.1163 -0.1407 -0.0085
 4250UDC    C1046749   3.738  19.861  10.888 -0.2889 -0.6858 -0.3632
 4250UDC    C1146750   3.677  19.955  11.001 -0.0639  0.3158  0.2238
 4251UDC     C146751  16.748  14.711  17.544 -0.0580 -1.5043  0.8507
 4251UDC     C246752  16.614  14.638  17.551  0.4218 -0.3601 -0.1302
 4251UDC     C346753  16.589  14.515  17.467  0.6017  0.3247  0.2461
 4251UDC     C446754  16.455  14.456  17.493  0.2029  0.2922  0.2739
 4251UDC     C546755  16.434  14.404  17.634  0.5550  0.6373  0.1768
 4251UDC     C646756  16.549  14.320  17.689 -0.2033 -0.1203  0.1811
 4251UDC     C746757  16.512  14.231  17.808 -0.8164  0.3888 -0.1022
 4251UDC     C846758  16.638  14.133  17.830  0.5498 -0.4115  0.2301
 4251UDC     C946759  16.675  14.039  17.709  0.3237 -0.1537  0.7038
 4251UDC    C1046760  16.548  13.962  17.665 -0.9695  0.5847  0.4946
 4251UDC    C1146761  16.474  13.886  17.774  0.6225 -0.2099  0.2060
 4252UDC     C146762  14.163   2.033  18.393 -0.1908 -0.5182  0.1028
 4252UDC     C246763  14.258   1.937  18.318 -0.1640 -0.4064 -0.1553
 4252UDC     C346764  14.406   1.982  18.292 -0.6181 -0.3133 -0.0471
 4252UDC     C446765  14.446   2.072  18.170 -0.2004  0.8350  1.3272
 4252UDC     C546766  14.388   2.215  18.187 -0.6268 -0.5107  0.5384
 4252UDC     C646767  14.440   2.288  18.310  0.2744  0.5687 -0.2395
 4252UDC     C746768  14.352   2.411  18.343 -0.0199  0.7391  0.1193
 4252UDC     C846769  14.326   2.511  18.232  0.0493  0.1806  0.2399
 4252UDC     C946770  14.329   2.645  18.298  0.3224 -0.6068 -0.8716
 4252UDC    C1046771  14.271   2.741  18.190 -1.2133 -1.4535  0.1824
 4252UDC    C1146772  14.207   2.873  18.238 -0.3309  0.6396  0.6793
 4253UDC     C146773   1.897   9.595   9.494  0.8142 -0.0925  0.8511
 4253UDC     C246774   1.782   9.697   9.530 -0.6682 -0.3453  0.0672
 4253UDC     C346775   1.782   9.770   9.669 -0.5269 -0.6170  0.0860
 4253UDC     C446776   1.668   9.877   9.655 -1.1810 -0.5667 -0.7635
 4253UDC     C546777   1.698  10.001   9.743 -1.7218 -0.5647  0.3604
 4253UDC     C646778   1.724   9.989   9.897  0.8054 -1.2138  0.0558
 4253UDC     C746779   1.785  10.109   9.970  1.0340  0.2933 -1.3593
 4253UDC     C846780   1.805  10.076  10.122 -0.2102  0.3568  0.2285
 4253UDC     C946781   1.688  10.053  10.212 -0.2353 -0.1949  0.6121
 4253UDC    C1046782   1.724   9.977  10.340  0.3853  1.0466 -0.7560
 4253UDC    C1146783   1.606   9.902  10.413  0.6734 -0.3776  0.7863
 4254UDC     C146784  11.630  18.602  13.380  0.3315 -0.5666 -0.1429
 4254UDC     C246785  11.500  18.614  13.463 -0.0282  0.0821 -0.3779
 4254UDC     C346786  11.375  18.640  13.374 -1.5107  0.4382 -0.3396
 4254UDC     C446787  11.355  18.542  13.256 -0.4924  0.1069 -0.2479
 4254UDC     C546788  11.204  18.533  13.214  0.1578 -0.7571  0.2081
 4254UDC     C646789  11.167  18.408  13.127 -0.1061  0.1924 -0.3526
 4254UDC     C746790  11.287  18.344  13.052 -0.0259  0.1057 -0.3696
 4254UDC     C846791  11.241  18.222  12.965  0.2444  0.0222  0.0253
 4254UDC     C946792  11.341  18.115  12.916 -0.2999  0.9593  0.2569
 4254UDC    C1046793  11.299  18.008  12.808 -0.9233  0.4657 -0.2039
 4254UDC    C1146794  11.146  17.993  12.783  0.4082  0.4209 -0.8063
 4255UDC     C146795  16.497   6.947  10.856  0.8665 -0.7700 -1.5973
 4255UDC     C246796  16.433   6.889  10.732  0.3577  0.4280 -0.4171
 4255UDC     C346797  16.317   6.802  10.775  0.4465  0.0220  0.7818
 4255UDC     C446798  16.208   6.777  10.664  0.0505  1.2184  0.8822
 4255UDC     C546799  16.265   6.697  10.544 -0.0280 -0.2734 -0.2924
 4255UDC     C646800  16.222   6.552  10.525 -0.6453 -0.6328 -0.1780
 4255UDC     C746801  16.326   6.475  10.439  0.0538 -0.7400 -0.2201
 4255UDC     C846802  16.291   6.330  10.456 -0.0707 -0.1114 -0.5751
 4255UDC     C946803  16.327   6.268  10.593 -1.3150  0.2101  0.1392
 4255UDC    C1046804  16.323   6.114  10.589 -0.6367 -1.0061 -0.5057
 4255UDC    C1146805  16.458   6.051  10.567 -0.0152 -0.6164  0.0644
 4256UDC     C146806  16.340  17.239  18.249  0.1791 -1.5563 -0.2671
 4256UDC     C246807  16.372  17.317  18.382  0.0184  1.1584 -0.8172
 4256UDC     C346808  16.289  17.425  18.460 -1.0384 -0.2314  0.6203
 4256UDC     C446809  16.271  17.367  18.599  0.2984  0.2246 -0.1640
 4256UDC     C546810  16.144  17.437  18.662 -0.9144  0.0058 -0.2403
 4256UDC     C646811  16.075  17.401  18.794 -1.1277  0.4373 -0.0061
 4256UDC     C746812  15.941  17.468  18.794 -0.2542 -0.4043 -0.7866
 4256UDC     C846813  15.847  17.394  18.708  0.4135 -0.9662  0.6156
 4256UDC     C946814  15.700  17.436  18.710 -0.8923  0.6503  0.5136
 4256UDC    C1046815  15.621  17.345  18.611  0.1056  0.8926  1.0766
 4256UDC    C1146816  15.471  17.334  18.605  0.0684 -0.5705 -0.6424
 4257UDC     C146817  15.919   0.058   3.549  0.0003  0.3504 -0.0444
 4257UDC     C246818  15.952   0.175   3.648 -0.5520  0.0231  0.0982
 4257UDC     C346819  15.985   0.310   3.578  0.1369 -0.5440  0.1546
 4257UDC     C446820  16.096   0.303   3.470  0.2115  0.4647  0.1090
 4257UDC     C546821  16.230   0.239   3.505 -0.9154 -0.0218 -0.1818
 4257UDC     C646822  16.335   0.243   3.391  0.5643 -0.6216  0.3366
 4257UDC     C746823  16.336   0.119   3.297 -0.8812 -1.5526 -0.1203
 4257UDC     C846824  16.437   0.103   3.185 -0.0586 -0.4430  0.6712
 4257UDC     C946825  16.445  -0.053   3.166  0.3325  0.0286  0.7283
 4257UDC    C1046826  16.550  -0.121   3.260  1.1096  0.7128  0.8554
 4257UDC    C1146827  16.554  -0.273   3.218  0.0592  0.4576  0.1689
 4258UDC     C146828   1.775  14.407  18.588  0.3036  0.1583 -0.9803
 4258UDC     C246829   1.650  14.486  18.629 -0.1140 -0.3823 -0.7460
 4258UDC     C346830   1.690  14.578  18.736 -0.3141 -0.3509  0.0285
 4258UDC     C446831   1.596  14.543  18.854  0.0320 -0.7560  0.4946
 4258UDC     C546832   1.446  14.583  18.821 -0.3809 -1.1083 -0.1530
 4258UDC     C646833   1.445  14.741  18.800 -0.2505 -0.4311 -0.7286
 4258UDC     C746834   1.299  14.781  18.825  0.9658 -0.1618 -0.1863
 4258UDC     C846835   1.261  14.927  18.789  0.3768  0.6559 -0.8889
 4258UDC     C946836   1.118  14.978  18.837  0.1433  0.1743  0.1015
 4258UDC    C1046837   1.033  15.048  18.733  0.2927  0.1842 -1.1531
 4258UDC    C1146838   0.887  15.074  18.765 -0.0225 -0.9349 -0.7316
 4259UDC     C146839   3.222   5.832  10.007  0.8613 -0.0693 -0.0091
 4259UDC     C246840   3.243   5.761   9.871  0.1019 -0.3508  1.2387
 4259UDC     C346841   3.148   5.638   9.841  0.5841  0.4863  0.9458
 4259UDC     C446842   3.028   5.676   9.748  1.0584 -0.3682 -0.1458
 4259UDC     C546843   2.957   5.548   9.709  0.3584  0.2600  0.2606
 4259UDC     C646844   2.815   5.568   9.658  0.4791 -0.8179  0.0837
 4259UDC     C746845   2.818   5.625   9.517 -0.1815 -1.0318 -0.0973
 4259UDC     C846846   2.684   5.672   9.466  0.1831  0.1905  1.1477
 4259UDC     C946847   2.576   5.557   9.447 -0.2107 -0.1329  0.1555
 4259UDC    C1046848   2.634   5.433   9.387  0.7160  0.2803  0.0646
 4259UDC    C1146849   2.527   5.326   9.356  0.2660  0.0777 -0.1371
 4260UDC     C146850   8.259  13.112  10.865 -0.2468 -0.5266 -0.6739
 4260UDC     C246851   8.225  13.227  10.961 -0.3826 -0.1419  0.2779
 4260UDC     C346852   8.106  13.199  11.059  0.8090  0.3829 -0.8840
 4260UDC     C446853   8.048  13.318  11.136  0.0717 -1.3885  1.1346
 4260UDC     C546854   8.152  13.373  11.245  0.7333  0.2213  0.3885
 4260UDC     C646855   8.194  13.522  11.269  0.9048  0.1667 -0.8265
 4260UDC     C746856   8.283  13.550  11.397  0.2995  0.0178  1.2277
 4260UDC     C846857   8.215  13.562  11.531 -0.4254 -0.2511 -0.8376
 4260UDC     C946858   8.310  13.561  11.653 -1.1623  0.0775 -0.9641
 4260UDC    C1046859   8.256  13.481  11.779  0.0421 -0.3807  0.3925
 4260UDC    C1146860   8.229  13.568  11.911  0.7768 -0.3791 -1.1960
 4261UDC     C146861  12.669  16.043   7.929 -0.0870 -0.5155 -0.2235
 4261UDC     C246862  12.760  16.098   8.046  0.1090 -0.2985 -0.7025
 4261UDC     C346863  12.708  16.077   8.186  0.6067  0.2642 -0.4984
 4261UDC     C446864  12.795  16.161   8.275 -0.2043 -1.2608 -0.2339
 4261UDC     C546865  12.799  16.310   8.240  0.0318 -0.2566  0.4676
 4261UDC     C646866  12.931  16.376   8.200 -0.3503 -1.1015 -0.6376
 4261UDC     C746867  12.935  16.491   8.097  0.0143 -0.6910 -0.1884
 4261UDC     C846868  12.824  16.588   8.147  0.9404 -0.4146  0.3702
 4261UDC     C946869  12.826  16.705   8.053  1.0335  0.1326 -0.0693
 4261UDC    C1046870  12.715  16.800   8.081  0.4541  0.2312  0.6362
 4261UDC    C1146871  12.726  16.927   7.991 -0.2915 -0.6173  0.1336
 4262UDC     C146872   6.526   0.626   0.889 -0.4032 -0.0879  0.7920
 4262UDC     C246873   6.574   0.757   0.844  0.1717  0.4517 -0.0928
 4262UDC     C346874   6.500   0.859   0.927 -0.6321 -0.2726 -0.5707
 4262UDC     C446875   6.424   0.970   0.856 -0.5135 -0.3981  0.4325
 4262UDC     C546876   6.381   1.070   0.966 -0.3900 -0.2894 -0.1712
 4262UDC     C646877   6.274   1.038   1.081 -1.1846 -0.8132  0.0419
 4262UDC     C746878   6.149   0.959   1.037 -0.2576 -0.4935 -0.4226
 4262UDC     C846879   6.048   0.960   1.162  0.1886 -1.2139  1.4090
 4262UDC     C946880   6.008   1.104   1.203 -1.1753 -0.5394  0.2014
 4262UDC    C1046881   5.899   1.131   1.302  0.2197 -0.4834  0.0486
 4262UDC    C1146882   5.922   1.280   1.366 -1.0910  0.1888 -0.0721
 4263UDC     C146883   6.011  12.837  13.124  0.9099  0.2202  0.8089
 4263UDC     C246884   6.031  12.812  13.268  0.6426 -0.6853 -0.2378
 4263UDC     C346885   6.134  12.709  13.292 -0.5369 -0.6958 -0.0286
 4263UDC     C446886   6.146  12.677  13.441  0.1168  0.1434 -0.2097
 4263UDC     C546887   6.243  12.784  13.501 -0.4302  0.1301 -1.1647
 4263UDC     C646888   6.179  12.901  13.572  0.2572 -0.1686 -0.7912
 4263UDC     C746889   6.105  12.891  13.709  0.4973  1.5882  0.2683
 4263UDC     C846890   6.052  13.022  13.781 -0.2985  1.0582  0.0434
 4263UDC     C946891   5.923  13.009  13.867  0.0267 -0.3150 -0.8476
 4263UDC    C1046892   5.801  13.048  13.794  0.5621 -0.6688 -0.6248
 4263UDC    C1146893   5.742  13.181  13.839 -0.2766 -0.6487 -0.1726
 4264UDC     C146894   5.233  15.494   7.459  0.1338 -0.2257  0.5290
 4264UDC     C246895   5.363  15.522   7.538  0.4665 -0.0840  0.4671
 4264UDC     C346896   5.367  15.648   7.626  0.6138 -1.2426  0.1432
 4264UDC     C446897   5.487  15.633   7.715 -0.1463  0.2622  0.7702
 4264UDC     C546898   5.439  15.585   7.855 -0.3931 -0.2337 -0.7908
 4264UDC     C646899   5.553  15.581   7.964  0.5403  0.8055  0.5110
 4264UDC     C746900   5.633  15.709   7.973  0.2715  0.3503  0.4545
 4264UDC     C846901   5.765  15.697   8.056 -0.1421 -0.5292 -0.2275
 4264UDC     C946902   5.763  15.697   8.208  0.9378 -0.2324 -0.0062
 4264UDC    C1046903   5.896  15.633   8.259  0.8206 -0.0996  0.7013
 4264UDC    C1146904   5.908  15.476   8.228 -0.4570 -0.6972 -0.8455
 4265UDC     C146905   3.529  16.552  15.807  0.0557  0.0920  0.3130
 4265UDC     C246906   3.678  16.604  15.831  0.7362  1.1727  0.8448
 4265UDC     C346907   3.740  16.570  15.967 -0.7350 -0.3371  0.9334
 4265UDC     C446908   3.885  16.616  15.978 -0.5155 -0.2748 -0.6805
 4265UDC     C546909   3.955  16.578  16.116 -0.7475  0.0820 -0.0090
 4265UDC     C646910   3.946  16.683  16.223 -1.0568 -0.0705 -0.4533
 4265UDC     C746911   3.959  16.816  16.151  0.3389  1.2311 -0.1248
 4265UDC     C846912   4.055  16.920  16.207 -0.6674 -0.1035 -0.3381
 4265UDC     C946913   4.051  17.041  16.112  0.6046 -0.4108  0.3070
 4265UDC    C1046914   4.135  17.140  16.202 -0.1116  0.4456  0.1691
 4265UDC    C1146915   4.100  17.174  16.344  0.0487 -0.2616 -0.6865
 4266UDC     C146916  15.827   6.484   3.438  0.1218  0.4288  0.0717
 4266UDC     C246917  15.922   6.399   3.341  0.8505 -0.4551 -0.1823
 4266UDC     C346918  16.065   6.412   3.378 -0.0156 -0.5183  0.2005
 4266UDC     C446919  16.162   6.385   3.263  0.7571 -0.5423  0.4264
 4266UDC     C546920  16.300   6.427   3.300  0.8200  0.0760  0.2076
 4266UDC     C646921  16.381   6.348   3.411  0.9150 -0.2833 -0.4131
 4266UDC     C746922  16.531   6.379   3.413  0.6936  1.0166  0.0682
 4266UDC     C846923  16.565   6.525   3.450 -1.2556 -0.0080 -0.2635
 4266UDC     C946924  16.716   6.550   3.428  1.0123 -0.5771  0.4871
 4266UDC    C1046925  16.751   6.695   3.472 -0.6583 -0.4291 -0.5572
 4266UDC    C1146926  16.746   6.705   3.627  0.0078 -0.7190  0.5998
 4267UDC     C146927  10.812   8.808   4.681  0.3862  0.6872  0.0617
 4267UDC     C246928  10.668   8.790   4.719  0.3549  0.7169 -0.1824
 4267UDC     C346929  10.593   8.701   4.615  0.2341 -1.2940  0.0027
 4267UDC     C446930  10.452   8.667   4.667  1.4991  0.7694  0.1883
 4267UDC     C546931  10.401   8.535   4.601  0.3249 -0.5288  0.5723
 4267UDC     C646932  10.332   8.443   4.704 -0.8906  0.3844 -0.6309
 4267UDC     C746933  10.226   8.516   4.793  0.0501 -0.2598  0.5910
 4267UDC     C846934  10.111   8.434   4.859 -0.4306  0.7137 -0.4062
 4267UDC     C946935   9.997   8.401   4.764 -0.0965 -0.6029  1.4850
 4267UDC    C1046936   9.920   8.270   4.788 -0.2397 -1.2628  0.0979
 4267UDC    C1146937   9.810   8.268   4.680  0.2127 -0.1078 -0.5194
 4268UDC     C146938   0.582  17.962   6.233 -0.1435 -0.3490 -0.3438
 4268UDC     C246939   0.437  18.004   6.268  0.3276 -1.7122  0.2179
 4268UDC     C346940   0.380  17.933   6.383  1.0803  0.1477  0.0883
 4268UDC     C446941   0.254  17.862   6.332 -0.7964  0.9007 -0.8932
 4268UDC     C546942   0.178  17.787   6.444 -0.3003  0.4392 -0.1274
 4268UDC     C646943   0.048  17.716   6.387 -0.2287 -1.5909 -0.0029
 4268UDC     C746944  -0.034  17.625   6.484 -0.9051  0.1205  0.4981
 4268UDC     C846945  -0.162  17.560   6.414 -0.2744  1.0617 -0.0928
 4268UDC     C946946  -0.189  17.413   6.431  0.2857  0.8009  1.3074
 4268UDC    C1046947  -0.059  17.319   6.440  0.8176  0.0590  0.7185
 4268UDC    C1146948  -0.089  17.180   6.482  0.1964  1.3319 -1.0245
 4269UDC     C146949   2.156   4.033  14.235 -0.0162  0.2609 -0.4822
 4269UDC     C246950   2.237   3.962  14.126  0.5407  0.0471 -0.9378
 4269UDC     C346951   2.386   3.923  14.150  0.0217  0.9076 -0.2503
 4269UDC     C446952   2.451   3.840  14.034  0.5709  0.1317  0.9040
 4269UDC     C546953   2.457   3.935  13.911 -0.2012 -0.1139 -0.5123
 4269UDC     C646954   2.555   4.056  13.903 -0.6916 -0.7882 -0.4141
 4269UDC     C746955   2.523   4.130  13.774  0.0002  0.2087 -1.2702
 4269UDC     C846956   2.624   4.241  13.744 -0.7104  0.2501 -0.0513
 4269UDC     C946957   2.593   4.303  13.605 -0.1473  0.4118  0.6834
 4269UDC    C1046958   2.600   4.198  13.496 -0.7882  0.5266  0.2730
 4269UDC    C1146959   2.748   4.191  13.449  0.4666  0.2527  0.4409
 4270UDC     C146960   3.695  15.152   2.015  0.3056 -0.4763  0.2381
 4270UDC     C246961   3.637  15.186   2.156 -0.3689 -0.0360  0.7443
 4270UDC     C346962   3.679  15.324   2.199 -0.5707  0.3739 -0.1706
 4270UDC     C446963   3.578  15.376   2.307 -0.1245  0.2024  0.5426
 4270UDC     C546964   3.553  15.270   2.410 -0.7046  0.7078 -0.5860
 4270UDC     C646965   3.410  15.294   2.469  0.3100  0.3167  1.3882
 4270UDC     C746966   3.368  15.212   2.587  0.0834  0.9248 -0.1973
 4270UDC     C846967   3.379  15.053   2.566  0.0706 -0.7943 -0.0741
 4270UDC     C946968   3.338  14.978   2.700  0.7311  0.9968  0.1531
 4270UDC    C1046969   3.471  14.938   2.776 -0.2158 -0.4617  1.2520
 4270UDC    C1146970   3.435  14.857   2.899  0.1860  0.5007  0.4512
 4271UDC     C146971   5.880  15.259  11.410  0.1595 -0.3666 -0.0382
 4271UDC     C246972   5.740  15.218  11.455  0.0724  0.2849  0.3674
 4271UDC     C346973   5.654  15.329  11.381 -1.2528  0.5713 -0.1775
 4271UDC     C446974   5.679  15.466  11.447  0.6294  1.5256  0.4341
 4271UDC     C546975   5.559  15.511  11.521 -0.2561  0.6535  0.2646
 4271UDC     C646976   5.444  15.530  11.427  1.2730 -0.4354 -0.3812
 4271UDC     C746977   5.332  15.608  11.505 -0.1554  0.0925 -0.2168
 4271UDC     C846978   5.329  15.761  11.508 -0.0470  0.0152 -0.1270
 4271UDC     C946979   5.264  15.838  11.634 -0.9497 -0.8511  0.3087
 4271UDC    C1046980   5.362  15.842  11.756 -0.9682 -0.1659  0.6502
 4271UDC    C1146981   5.305  15.903  11.882 -0.3394  0.0867  0.1462
 4272UDC     C146982  18.455  19.327  19.238  0.6096 -0.0786 -0.2800
 4272UDC     C246983  18.493  19.331  19.387  0.9520 -0.3377 -0.1551
 4272UDC     C346984  18.573  19.446  19.436  0.0959  0.8063 -0.2605
 4272UDC     C446985  18.509  19.581  19.431  0.2487  0.2787 -0.4230
 4272UDC     C546986  18.518  19.658  19.293  0.5132  0.4466  0.0524
 4272UDC     C646987  18.589  19.792  19.315 -0.7056  0.3940  0.7909
 4272UDC     C746988  18.595  19.864  19.180 -0.3811  0.8860  0.4921
 4272UDC     C846989  18.466  19.898  19.115  0.7424 -0.3804 -0.7934
 4272UDC     C946990  18.426  20.054  19.123  0.7627  2.2542 -0.0295
 4272UDC    C1046991  18.327  20.089  19.009 -0.7699  0.0354 -0.8358
 4272UDC    C1146992  18.200  20.005  19.024 -0.3615 -0.7208 -0.6612
 4273UDC     C146993   6.064  11.052  12.471  0.5773 -0.5775 -0.5579
 4273UDC     C246994   6.158  10.960  12.555  0.1730 -0.1426  0.0542
 4273UDC     C346995   6.064  10.875  12.650 -0.1076 -0.3185 -0.3603
 4273UDC     C446996   5.986  10.745  12.604 -0.7284  0.9665 -0.4837
 4273UDC     C546997   5.834  10.775  12.628  0.1279 -0.4189 -0.0370
 4273UDC     C646998   5.751  10.652  12.603  0.6467  0.2302 -0.1765
 4273UDC     C746999   5.793  10.616  12.460 -0.4616 -0.6048  0.4073
 4273UDC     C847000   5.744  10.724  12.353  0.7050  0.7057 -0.3222
 4273UDC     C947001   5.810  10.677  12.219 -0.0491 -0.6016  0.6527
 4273UDC    C1047002   5.850  10.520  12.234  0.3016  0.5654 -0.0519
 4273UDC    C1147003   5.926  10.444  12.116 -0.2509  1.1660  0.4054
 4274UDC     C147004   7.291  12.499   4.363  1.0230 -0.8665 -0.5972
 4274UDC     C247005   7.187  12.453   4.257 -1.5351 -1.3771 -0.2789
 4274UDC     C347006   7.038  12.436   4.280  0.5199 -0.5359 -0.7481
 4274UDC     C447007   6.953  12.432   4.147 -0.1789  0.4907  0.0454
 4274UDC     C547008   6.802  12.418   4.175  0.5455 -0.7488 -0.2029
 4274UDC     C647009   6.702  12.451   4.058  0.0231  0.4833  0.6072
 4274UDC     C747010   6.556  12.404   4.075  0.3966 -0.0867 -0.4279
 4274UDC     C847011   6.449  12.402   3.956 -0.3376 -0.3438  0.8039
 4274UDC     C947012   6.306  12.340   3.975  0.3290 -1.4476 -0.1176
 4274UDC    C1047013   6.207  12.327   3.852 -0.7393 -0.9082  0.0531
 4274UDC    C1147014   6.207  12.190   3.794  0.1467  0.6948  0.6604
 4275UDC     C147015  10.340  10.524   1.059  0.7789  0.0486  0.1166
 4275UDC     C247016  10.444  10.467   1.162  0.0108 -1.2474  0.7094
 4275UDC     C347017  10.586  10.507   1.109 -0.1037 -0.2845  0.9422
 4275UDC     C447018  10.624  10.655   1.106 -0.8186 -0.5272  0.0548
 4275UDC     C547019  10.623  10.713   1.250 -0.9656  0.0115  0.5851
 4275UDC     C647020  10.707  10.833   1.284 -0.3532 -0.1720 -0.2683
 4275UDC     C747021  10.759  10.870   1.428 -0.2543  0.0558  0.7916
 4275UDC     C847022  10.665  10.953   1.529 -1.0717 -0.7978 -0.0481
 4275UDC     C947023  10.693  10.933   1.687 -0.2676 -0.3081  0.6792
 4275UDC    C1047024  10.843  10.916   1.730 -0.8456 -0.4000 -0.9255
 4275UDC    C1147025  10.857  10.860   1.874 -1.1050 -0.0437  1.0167
 4276UDC     C147026  13.684   4.984   8.927  1.1170  0.3449  0.1403
 4276UDC     C247027  13.791   4.877   8.889 -1.6330 -0.5062  0.0942
 4276UDC     C347028  13.931   4.904   8.945 -1.7112 -0.8852  0.5774
 4276UDC     C447029  14.036   4.799   8.879  1.4403 -1.2300 -0.6284
 4276UDC     C547030  14.173   4.821   8.942  0.0244 -0.0993 -0.0263
 4276UDC     C647031  14.267   4.916   8.854  0.2091  0.2668 -0.2309
 4276UDC     C747032  14.312   4.826   8.738  0.1416  0.4324 -0.0145
 4276UDC     C847033  14.349   4.894   8.607  0.8855 -0.4093  0.4511
 4276UDC     C947034  14.396   4.799   8.502  0.9326  0.8049  0.1366
 4276UDC    C1047035  14.519   4.719   8.548  0.0439  0.7224 -0.5180
 4276UDC    C1147036  14.602   4.698   8.421  0.3876  0.4721 -0.3128
 4277UDC     C147037   6.875   1.351  15.500 -1.0044  0.1809  0.9229
 4277UDC     C247038   6.995   1.386  15.590 -0.4467 -0.4426  1.0282
 4277UDC     C347039   7.137   1.398  15.527  0.2453 -0.0384 -0.1367
 4277UDC     C447040   7.228   1.434  15.646 -0.1210 -0.9355 -1.0708
 4277UDC     C547041   7.362   1.498  15.623 -0.2022 -0.7468  0.6295
 4277UDC     C647042   7.331   1.640  15.585 -0.2415 -0.4181 -1.2940
 4277UDC     C747043   7.452   1.743  15.589  0.4315 -0.2291  0.4229
 4277UDC     C847044   7.418   1.894  15.580  0.0214  1.1530 -0.7618
 4277UDC     C947045   7.348   1.926  15.451 -0.1974  0.1489 -0.5425
 4277UDC    C1047046   7.447   1.932  15.342 -0.1898 -0.4788  0.5512
 4277UDC    C1147047   7.417   2.014  15.213  0.7086  1.0513  0.2304
 4278UDC     C147048   4.135   2.530  11.658  0.2338 -0.0223  0.0478
 4278UDC     C247049   4.059   2.495  11.532  0.2928  0.0532 -0.6251
 4278UDC     C347050   4.143   2.398  11.447 -0.6881 -1.2394 -0.4423
 4278UDC     C447051   4.171   2.270  11.515  1.5578  0.8008 -0.6432
 4278UDC     C547052   4.032   2.201  11.555  0.6742  0.3817  0.1366
 4278UDC     C647053   4.051   2.049  11.558 -0.5250 -0.0845  0.2946
 4278UDC     C747054   4.182   1.998  11.630  0.0386 -0.2986 -1.2846
 4278UDC     C847055   4.148   1.997  11.778 -0.7026 -0.6180  0.9131
 4278UDC     C947056   4.062   1.886  11.813  0.9162  0.3595 -0.4076
 4278UDC    C1047057   4.095   1.817  11.949  0.4403  0.5944 -0.0299
 4278UDC    C1147058   4.034   1.675  11.963  0.7653 -0.4310 -0.6461
 4279UDC     C147059  11.333  16.106  15.948  0.1664 -0.1103 -0.4987
 4279UDC     C247060  11.367  15.994  15.846 -0.6894 -0.6216 -0.0807
 4279UDC     C347061  11.520  16.002  15.805  0.3096  0.0935  0.4212
 4279UDC     C447062  11.541  16.118  15.708 -0.7703  0.0900 -0.1983
 4279UDC     C547063  11.699  16.137  15.700  1.0183  0.8442 -1.1407
 4279UDC     C647064  11.756  16.132  15.557  0.0460  0.0501  0.9034
 4279UDC     C747065  11.762  16.268  15.483  0.2561  0.4383 -0.2809
 4279UDC     C847066  11.843  16.284  15.355 -0.3013 -0.4532 -0.2227
 4279UDC     C947067  11.920  16.171  15.288  0.4013  0.5615 -0.1722
 4279UDC    C1047068  11.920  16.166  15.135 -0.0763 -0.0092 -0.5064
 4279UDC    C1147069  12.030  16.077  15.081 -0.3719  0.7120  1.4115
 4280UDC     C147070   5.036  16.494   7.256  0.2486 -1.2059 -0.8242
 4280UDC     C247071   5.079  16.395   7.362 -0.0038  0.3745 -0.0855
 4280UDC     C347072   5.187  16.291   7.320  0.0076  0.8817  0.6149
 4280UDC     C447073   5.151  16.147   7.264 -0.1645 -1.1250  0.8720
 4280UDC     C547074   5.102  16.061   7.379  1.6789  0.6653 -0.0146
 4280UDC     C647075   5.066  15.923   7.312  0.8813  0.1559  1.6191
 4280UDC     C747076   4.934  15.841   7.340 -0.9161 -0.0326  0.0473
 4280UDC     C847077   4.949  15.764   7.475  0.6362 -0.8177 -0.2513
 4280UDC     C947078   4.848  15.651   7.519 -0.9441  0.4660 -0.0735
 4280UDC    C1047079   4.885  15.597   7.659 -0.5087 -0.0017  0.8523
 4280UDC    C1147080   4.777  15.491   7.663 -0.0840  0.7976 -0.5902
 4281UDC     C147081   7.300  10.144  16.386  0.6581 -0.8703  0.2617
 4281UDC     C247082   7.327  10.019  16.297  0.1412 -1.6425 -0.1709
 4281UDC     C347083   7.474   9.986  16.265 -0.5584 -0.5430 -1.3020
 4281UDC     C447084   7.498   9.881  16.154 -1.0539  0.0689 -0.4247
 4281UDC     C547085   7.391   9.770  16.156 -0.0498 -0.5450 -0.3172
 4281UDC     C647086   7.441   9.661  16.075  0.8206  0.4600  0.3599
 4281UDC     C747087   7.551   9.580  16.144  0.9073 -0.7362 -0.5774
 4281UDC     C847088   7.587   9.444  16.076  0.5715 -0.3722  0.6138
 4281UDC     C947089   7.673   9.471  15.951  0.1744  0.0982 -0.5396
 4281UDC    C1047090   7.638   9.403  15.816  0.2465  0.5771  0.1607
 4281UDC    C1147091   7.737   9.427  15.697  0.5827 -0.3844  0.1435
 4282UDC     C147092  11.909   8.729  10.075 -0.2237  0.1025  0.0533
 4282UDC     C247093  11.780   8.674  10.138  0.3061 -1.1644 -0.0584
 4282UDC     C347094  11.673   8.644  10.033 -1.2597 -1.3529  0.7762
 4282UDC     C447095  11.700   8.507   9.974 -1.0539 -0.5636 -0.6065
 4282UDC     C547096  11.711   8.391  10.075 -0.3626  0.3073 -0.6991
 4282UDC     C647097  11.698   8.251   9.995  0.0881 -1.6077  0.2012
 4282UDC     C747098  11.829   8.178   9.949  0.3765  0.0864  0.6433
 4282UDC     C847099  11.932   8.249   9.855  0.2567  0.2776  0.0623
 4282UDC     C947100  12.005   8.146   9.771  0.9577 -0.1342  0.0650
 4282UDC    C1047101  11.926   8.061   9.673 -0.5369  0.1617  0.5934
 4282UDC    C1147102  12.011   7.953   9.608 -0.3280  0.9021  0.8834
 4283UDC     C147103  14.161   5.960   9.452  0.5243 -0.5244 -0.6483
 4283UDC     C247104  14.036   5.878   9.408 -0.0184 -0.7824 -1.2357
 4283UDC     C347105  14.067   5.737   9.356 -0.2194 -0.5065  0.1878
 4283UDC     C447106  14.114   5.646   9.467 -0.5647 -0.0469  0.2694
 4283UDC     C547107  14.008   5.594   9.575  0.1124 -0.0115  0.1227
 4283UDC     C647108  14.059   5.517   9.701 -0.8475  0.2847 -1.0677
 4283UDC     C747109  14.108   5.380   9.652  0.0488  0.3195  1.0764
 4283UDC     C847110  14.152   5.276   9.766  0.7457 -0.6660 -0.6566
 4283UDC     C947111  14.272   5.295   9.852  0.6701 -0.4874 -0.7859
 4283UDC    C1047112  14.316   5.189   9.957 -0.8911  0.0820 -0.2433
 4283UDC    C1147113  14.395   5.062   9.927  0.5751  0.8536  0.2846
 4284UDC     C147114   0.670  11.509   9.834 -0.1567  0.0874  1.1991
 4284UDC     C247115   0.807  11.520   9.897  0.7252 -1.1093  0.2185
 4284UDC     C347116   0.856  11.657   9.943  0.9898 -0.4478  0.7039
 4284UDC     C447117   0.997  11.659  10.001 -0.2020 -0.9780  1.1074
 4284UDC     C547118   1.017  11.554  10.106  0.2882 -0.1180 -0.1414
 4284UDC     C647119   1.130  11.569  10.210  0.6955  0.2665 -0.0354
 4284UDC     C747120   1.126  11.482  10.339 -0.6036 -0.4919 -0.7611
 4284UDC     C847121   1.254  11.502  10.435  1.2335  1.0491  0.0540
 4284UDC     C947122   1.269  11.479  10.589  0.2691  0.5985  0.3912
 4284UDC    C1047123   1.413  11.489  10.647  1.0148 -0.4815  0.2588
 4284UDC    C1147124   1.438  11.635  10.693 -0.8636  0.4509 -0.0548
 4285UDC     C147125   8.500  10.550   7.026  0.1652  0.3880 -0.7889
 4285UDC     C247126   8.635  10.538   7.095 -0.8295 -0.5376  0.7326
 4285UDC     C347127   8.659  10.614   7.228  0.5407  0.2259 -0.2280
 4285UDC     C447128   8.611  10.758   7.222  0.4856 -0.2229  0.0747
 4285UDC     C547129   8.615  10.824   7.362  0.1792  0.5565 -0.1574
 4285UDC     C647130   8.549  10.964   7.360 -1.5544 -0.8444 -0.2037
 4285UDC     C747131   8.635  11.055   7.277  1.1087 -0.5558  0.0884
 4285UDC     C847132   8.550  11.177   7.239  0.1744 -0.7718  1.2779
 4285UDC     C947133   8.643  11.293   7.200 -0.9933 -0.6481  0.0524
 4285UDC    C1047134   8.674  11.316   7.050  0.0449 -1.0536 -0.8493
 4285UDC    C1147135   8.768  11.209   6.989  0.2060 -0.5449  0.3067
 4286UDC     C147136   7.881   4.639   2.211  0.7141 -0.4148  0.3753
 4286UDC     C247137   7.866   4.541   2.312  0.3037  0.6833 -0.0590
 4286UDC     C347138   7.739   4.549   2.401  0.4016 -0.0406 -0.9779
 4286UDC     C447139   7.763   4.503   2.546 -0.0056 -0.1232 -1.4437
 4286UDC     C547140   7.878   4.585   2.619  0.2078  0.2634  0.4734
 4286UDC     C647141   7.885   4.545   2.766  0.0883  0.5078 -0.5258
 4286UDC     C747142   7.970   4.413   2.781 -0.8952 -0.8501  0.2438
 4286UDC     C847143   8.110   4.473   2.759 -0.4288 -0.3609 -0.7976
 4286UDC     C947144   8.221   4.374   2.777  0.2511  0.5881  0.2731
 4286UDC    C1047145   8.350   4.429   2.710 -0.7290 -0.3561 -0.7038
 4286UDC    C1147146   8.325   4.482   2.566  0.1362  0.7542  0.2952
 4287UDC     C147147  18.867  14.295   1.552 -0.8903 -0.9219  0.7043
 4287UDC     C247148  18.950  14.425   1.576 -0.2348 -0.8448  0.4890
 4287UDC     C347149  19.093  14.426   1.627  1.0241  0.7809  1.4474
 4287UDC     C447150  19.125  14.404   1.774 -0.0081 -0.5150 -0.1872
 4287UDC     C547151  19.213  14.526   1.824 -0.0819  0.4618 -1.3710
 4287UDC     C647152  19.266  14.528   1.969 -0.9907  0.8047 -0.9703
 4287UDC     C747153  19.396  14.446   1.987  0.2142  0.5876 -0.8737
 4287UDC     C847154  19.481  14.446   2.119  0.3397  0.1193  0.1381
 4287UDC     C947155  19.589  14.342   2.120 -0.7927 -0.6240  0.3302
 4287UDC    C1047156  19.693  14.360   2.236 -0.2675  0.7681 -0.2669
 4287UDC    C1147157  19.800  14.474   2.213 -0.1839  0.0808 -0.7714
 4288UDC     C147158  13.443   6.594   1.363 -1.3717 -0.1398 -0.1269
 4288UDC     C247159  13.431   6.708   1.471  0.7526 -0.6652  0.2184
 4288UDC     C347160  13.570   6.759   1.481  0.1959 -0.1037  0.3757
 4288UDC     C447161  13.618   6.836   1.358  0.1972  0.4946 -0.0686
 4288UDC     C547162  13.736   6.925   1.403  0.3840  0.4664  1.3863
 4288UDC     C647163  13.820   7.005   1.306 -0.5722 -0.0900  0.1526
 4288UDC     C747164  13.862   6.940   1.169  0.3167 -0.6988 -0.1141
 4288UDC     C847165  13.901   7.051   1.063 -0.7827  0.0831 -1.1567
 4288UDC     C947166  13.905   6.998   0.918 -0.6719 -0.5862 -1.4227
 4288UDC    C1047167  13.754   6.999   0.859 -0.4314 -0.0996 -0.0691
 4288UDC    C1147168  13.758   6.950   0.712  0.1035 -0.6149  0.2385
 4289UDC     C147169   4.096  12.344   1.507 -0.6047 -0.0496 -0.9349
 4289UDC     C247170   4.112  12.385   1.366  0.0209  0.2645  0.5608
 4289UDC     C347171   3.985  12.349   1.275  0.0644  0.1656 -0.4057
 4289UDC     C447172   3.978  12.199   1.270 -0.2568 -0.3418  0.0178
 4289UDC     C547173   3.830  12.160   1.255 -0.8034  0.7796 -0.7042
 4289UDC     C647174   3.783  12.021   1.197 -0.4776  0.4455  0.8896
 4289UDC     C747175   3.684  11.964   1.294  0.3609 -0.2517 -0.6256
 4289UDC     C847176   3.678  11.806   1.293  0.4940 -0.7248  0.0363
 4289UDC     C947177   3.631  11.728   1.169  1.2898  0.1002 -0.0730
 4289UDC    C1047178   3.552  11.598   1.207  0.5723  0.3138 -0.3781
 4289UDC    C1147179   3.480  11.531   1.093 -0.1688 -0.0915 -0.0343
 4290UDC     C147180   1.014  18.171   7.456 -0.6768  0.1779  0.0129
 4290UDC     C247181   1.100  18.289   7.497 -0.0879  0.9778 -0.0104
 4290UDC     C347182   1.194  18.352   7.385  0.3749  0.5310 -0.6367
 4290UDC     C447183   1.142  18.415   7.256  0.4517 -0.8103 -1.0015
 4290UDC     C547184   1.208  18.535   7.184  0.7051 -0.2576  0.2098
 4290UDC     C647185   1.358  18.532   7.146 -0.5426  0.0197  0.0355
 4290UDC     C747186   1.359  18.637   7.034 -0.2349 -0.2538 -0.2817
 4290UDC     C847187   1.284  18.598   6.906  0.5510 -0.1847 -0.1880
 4290UDC     C947188   1.267  18.718   6.810  1.0667  0.9475  0.0662
 4290UDC    C1047189   1.305  18.687   6.667  0.4167  0.3419  0.4268
 4290UDC    C1147190   1.218  18.572   6.606  1.1471 -0.3833  0.1714
 4291UDC     C147191   7.035   5.127  14.209 -0.2162  0.0533  0.5851
 4291UDC     C247192   7.176   5.118  14.158 -0.7209 -0.2140  0.6963
 4291UDC     C347193   7.245   5.246  14.120  0.9998  0.1971  0.1062
 4291UDC     C447194   7.329   5.320  14.223  0.3179  1.3453  0.4787
 4291UDC     C547195   7.462   5.242  14.230 -0.2922 -0.3397 -0.4146
 4291UDC     C647196   7.580   5.273  14.324 -2.0403 -0.7450  0.6953
 4291UDC     C747197   7.537   5.231  14.460  0.6292 -0.3311 -0.9100
 4291UDC     C847198   7.463   5.101  14.435 -0.3982 -0.6438  0.5058
 4291UDC     C947199   7.536   4.988  14.511 -0.4001  0.6884  0.3721
 4291UDC    C1047200   7.476   4.843  14.490  0.3911  0.6159 -0.2377
 4291UDC    C1147201   7.323   4.809  14.513 -0.9862 -0.5331  0.2038
 4292UDC     C147202   3.375  18.032  16.772 -0.4184  1.2921 -0.7099
 4292UDC     C247203   3.473  18.055  16.652  0.3988  0.2598 -0.7217
 4292UDC     C347204   3.610  18.065  16.720 -0.3085  0.1196  0.6595
 4292UDC     C447205   3.632  17.959  16.830 -0.3292 -0.5088  0.7166
 4292UDC     C547206   3.720  17.996  16.950 -0.5516  0.8661  1.0175
 4292UDC     C647207   3.857  18.078  16.931  0.3772 -0.4123  0.3263
 4292UDC     C747208   3.957  18.062  17.042  0.7045 -0.4031 -0.0756
 4292UDC     C847209   3.909  18.127  17.170  0.1746  0.0692 -0.5361
 4292UDC     C947210   3.962  18.265  17.164  0.1292 -1.1914  0.4336
 4292UDC    C1047211   3.914  18.332  17.293  0.1008  0.6170  0.4554
 4292UDC    C1147212   3.758  18.320  17.289  0.4763  0.4833  0.7912
 4293UDC     C147213   6.764  14.561  16.114  0.5341 -0.7113 -0.0774
 4293UDC     C247214   6.714  14.417  16.113 -0.3208 -0.3853  0.7943
 4293UDC     C347215   6.839  14.322  16.112  0.8367  0.1959  0.2895
 4293UDC     C447216   6.816  14.207  16.196 -0.1834  0.5673 -0.9848
 4293UDC     C547217   6.765  14.080  16.129  0.9638  0.8409 -0.2433
 4293UDC     C647218   6.733  13.961  16.211  0.1223  0.0620  0.3739
 4293UDC     C747219   6.704  13.832  16.134  0.0011 -0.0325  0.4868
 4293UDC     C847220   6.666  13.719  16.235 -0.0008  0.2831 -0.5713
 4293UDC     C947221   6.678  13.570  16.190  0.4020  0.3086 -0.0693
 4293UDC    C1047222   6.816  13.524  16.159 -0.2960  0.6122 -0.1533
 4293UDC    C1147223   6.805  13.402  16.068  1.0247  0.8127  0.5660
 4294UDC     C147224   7.555   9.932   2.341 -0.6535  0.5673  0.9004
 4294UDC     C247225   7.575   9.879   2.195  0.8796  0.2256 -0.2045
 4294UDC     C347226   7.706   9.812   2.170 -0.0317  0.2439  1.0251
 4294UDC     C447227   7.715   9.718   2.052 -0.8688 -0.6653  0.4237
 4294UDC     C547228   7.573   9.672   2.007 -0.0990  0.0751 -0.2997
 4294UDC     C647229   7.558   9.572   1.892  0.9185  0.4376  0.9332
 4294UDC     C747230   7.594   9.601   1.744  0.2430 -0.8861  0.3044
 4294UDC     C847231   7.579   9.464   1.677 -0.6255 -0.0706 -0.2409
 4294UDC     C947232   7.449   9.382   1.695 -0.4527 -0.2770  0.3324
 4294UDC    C1047233   7.328   9.452   1.628 -0.0280  0.1656 -0.5608
 4294UDC    C1147234   7.207   9.374   1.588  0.9810  0.0592 -0.4285
 4295UDC     C147235   2.256  11.352  14.219 -0.0709 -0.2183 -0.0064
 4295UDC     C247236   2.177  11.480  14.268  0.0495 -0.8727  0.3795
 4295UDC     C347237   2.091  11.554  14.163  0.7843 -0.8924  0.4732
 4295UDC     C447238   2.019  11.678  14.215  0.0513  0.2004 -0.6139
 4295UDC     C547239   1.970  11.782  14.111 -0.0682  0.7025  0.8486
 4295UDC     C647240   1.831  11.758  14.051 -0.0456 -0.5224 -0.3610
 4295UDC     C747241   1.760  11.891  14.047  0.5043  0.3409  0.5421
 4295UDC     C847242   1.613  11.892  14.023  0.0589  0.4105 -0.8149
 4295UDC     C947243   1.557  11.792  13.921 -1.0763 -0.2692 -0.4093
 4295UDC    C1047244   1.427  11.833  13.858  0.4414  0.1082 -0.1811
 4295UDC    C1147245   1.361  11.696  13.826 -0.2100  0.3066  0.7003
 4296UDC     C147246  16.200   6.616   0.367  0.6283  0.4025 -0.6068
 4296UDC     C247247  16.342   6.560   0.401  0.1391 -0.2798 -0.1286
 4296UDC     C347248  16.335   6.475   0.532  0.3974 -0.7825  0.3982
 4296UDC     C447249  16.471   6.478   0.599 -0.2555  0.3603 -0.8690
 4296UDC     C547250  16.602   6.470   0.504  1.1965 -0.6263 -0.2706
 4296UDC     C647251  16.715   6.374   0.558  0.2811  1.3063 -0.1573
 4296UDC     C747252  16.679   6.250   0.637  0.5261 -0.5337  0.2256
 4296UDC     C847253  16.808   6.160   0.635  0.4587 -0.8544 -0.3453
 4296UDC     C947254  16.849   6.055   0.748 -0.2822  0.2125  0.6036
 4296UDC    C1047255  16.848   6.099   0.889 -0.2745  1.0956 -0.6702
 4296UDC    C1147256  16.926   6.230   0.903  0.7261 -0.0817 -0.1180
 4297UDC     C147257  11.183   2.131   8.985  1.1644 -0.0998  0.0524
 4297UDC     C247258  11.253   2.160   9.123 -0.4033  0.5468  0.0669
 4297UDC     C347259  11.398   2.107   9.136  0.0642  0.0710  0.3630
 4297UDC     C447260  11.506   2.215   9.090  1.2812  0.5172  0.4405
 4297UDC     C547261  11.500   2.355   9.155 -0.3504 -1.5730 -0.0674
 4297UDC     C647262  11.633   2.410   9.214  0.6028 -0.9997 -0.8649
 4297UDC     C747263  11.675   2.537   9.140  0.4296  0.3180  0.6344
 4297UDC     C847264  11.587   2.644   9.180  0.8106 -0.6044 -0.0722
 4297UDC     C947265  11.673   2.782   9.177 -0.7076  0.5544  0.7607
 4297UDC    C1047266  11.572   2.888   9.217 -0.2101 -1.3232 -0.9676
 4297UDC    C1147267  11.613   3.031   9.238 -0.8323 -0.6837 -1.6463
 4298UDC     C147268  13.921  17.426  17.597  0.5656  1.0010  0.2970
 4298UDC     C247269  13.868  17.357  17.467  0.2847  0.1942 -0.3466
 4298UDC     C347270  13.786  17.242  17.498  0.0492  1.1727  0.0830
 4298UDC     C447271  13.729  17.178  17.374 -0.0870 -0.4651 -0.2069
 4298UDC     C547272  13.642  17.068  17.431  1.5512 -0.2502 -1.1500
 4298UDC     C647273  13.528  17.030  17.333  0.4630  0.1141 -0.1715
 4298UDC     C747274  13.568  16.922  17.235  0.2302  0.8621  0.0206
 4298UDC     C847275  13.640  16.956  17.108 -0.4173 -0.3634 -0.4451
 4298UDC     C947276  13.534  17.025  17.018 -0.2089 -0.5319  0.7551
 4298UDC    C1047277  13.587  17.157  16.949  0.8992  0.2560 -0.4181
 4298UDC    C1147278  13.505  17.231  16.840 -0.1532 -0.2295 -0.6758
 4299UDC     C147279   1.397  18.234  12.393 -0.2034 -0.6898  0.5314
 4299UDC     C247280   1.444  18.286  12.261 -1.1392  0.0729 -1.3915
 4299UDC     C347281   1.579  18.226  12.214 -0.6271 -0.3367 -0.4741
 4299UDC     C447282   1.651  18.322  12.110  0.0707 -1.5030 -1.2880
 4299UDC     C547283   1.761  18.264  12.020  0.3266 -0.3237 -0.6031
 4299UDC     C647284   1.894  18.280  12.106  0.8602 -0.4000  0.0167
 4299UDC     C747285   2.007  18.232  12.028 -0.9538 -0.4648  0.3736
 4299UDC     C847286   2.134  18.178  12.107 -0.5154  0.0050 -0.9822
 4299UDC     C947287   2.097  18.109  12.244 -0.0367  0.9657 -0.2091
 4299UDC    C1047288   2.227  18.049  12.306  0.0620  1.1037 -0.5120
 4299UDC    C1147289   2.239  18.041  12.467  0.7884 -1.0626  0.9093
 4300UDC     C147290  14.203   3.944   1.335 -1.0382 -0.5218  0.7350
 4300UDC     C247291  14.303   4.038   1.268 -0.3480 -0.7632 -0.6716
 4300UDC     C347292  14.450   3.993   1.265  0.2151 -0.5416 -0.1401
 4300UDC     C447293  14.496   3.974   1.410  0.5735  0.0025  0.1097
 4300UDC     C547294  14.638   4.024   1.426  0.8548 -0.4751  0.0458
 4300UDC     C647295  14.673   4.065   1.571  0.1233  0.3716 -0.1125
 4300UDC     C747296  14.574   4.150   1.641 -0.2358  0.2357  0.2111
 4300UDC     C847297  14.654   4.229   1.744 -0.1075 -0.6350  0.1759
 4300UDC     C947298  14.584   4.348   1.815  0.1208 -0.4731  0.8926
 4300UDC    C1047299  14.642   4.372   1.956 -1.0569 -1.3320  0.2159
 4300UDC    C1147300  14.571   4.298   2.068 -0.2799  0.0577  0.1077
 4301UDC     C147301  13.254  11.790   4.255 -0.1593 -0.2654 -0.5479
 4301UDC     C247302  13.106  11.767   4.264  0.4806 -0.5408 -0.8129
 4301UDC     C347303  13.077  11.695   4.394 -0.0594 -0.5493 -0.3033
 4301UDC     C447304  12.930  11.670   4.432 -0.0784  0.2861 -0.3331
 4301UDC     C547305  12.827  11.764   4.371  0.4491  0.0974 -0.4755
 4301UDC     C647306  12.695  11.784   4.450  0.6901  0.6582 -0.4343
 4301UDC     C747307  12.709  11.866   4.576  0.9261  0.6750 -0.8020
 4301UDC     C847308  12.578  11.872   4.650 -0.0612 -0.3816 -0.5861
 4301UDC     C947309  12.573  11.906   4.808 -0.1261  0.1605  0.9251
 4301UDC    C1047310  12.468  12.018   4.820 -0.3793  0.3403 -0.1821
 4301UDC    C1147311  12.339  11.994   4.740  0.5500  0.1283 -0.1168
 4302UDC     C147312   5.653  17.646   1.323  0.4036  0.3730 -0.0764
 4302UDC     C247313   5.562  17.770   1.329 -1.1163 -0.5101 -1.2236
 4302UDC     C347314   5.421  17.745   1.296 -0.3350 -0.9299 -0.7399
 4302UDC     C447315   5.333  17.858   1.354 -0.6499 -0.5907  0.3720
 4302UDC     C547316   5.179  17.833   1.348  0.4132  0.0816  0.0717
 4302UDC     C647317   5.130  17.825   1.200 -0.5790  0.8941  1.2110
 4302UDC     C747318   4.999  17.747   1.195 -0.4775  0.2038  0.7011
 4302UDC     C847319   4.924  17.793   1.070  0.7474 -0.9503 -0.1676
 4302UDC     C947320   4.874  17.933   1.066 -0.0921 -0.0364  0.0673
 4302UDC    C1047321   4.843  17.991   0.924 -0.2553  0.4095  0.3033
 4302UDC    C1147322   4.724  17.911   0.859  0.7476 -0.3772 -0.9231
 4303UDC     C147323  13.902   7.687  17.656  0.5182  0.0036  0.4876
 4303UDC     C247324  13.792   7.710  17.556  0.6954 -0.6383 -0.6376
 4303UDC     C347325  13.648   7.681  17.611  0.3621  0.0416  0.6396
 4303UDC     C447326  13.538   7.683  17.503 -0.4194 -0.2895  0.1262
 4303UDC     C547327  13.390   7.668  17.548 -0.9279  0.0639  0.4831
 4303UDC     C647328  13.358   7.560  17.666 -0.6319  0.7923  0.3004
 4303UDC     C747329  13.211   7.559  17.718 -0.9252  0.3216 -0.4283
 4303UDC     C847330  13.148   7.681  17.792 -0.0908  0.2202 -0.2332
 4303UDC     C947331  13.004   7.631  17.826  0.2116 -0.0316 -1.2999
 4303UDC    C1047332  12.916   7.745  17.873  0.2267 -0.0559 -0.3170
 4303UDC    C1147333  12.785   7.680  17.940 -0.6433 -0.0107 -0.2047
 4304UDC     C147334  14.107  15.889  16.214  0.5358  0.5335  0.0396
 4304UDC     C247335  14.027  15.823  16.327  0.6160  0.1928 -0.0615
 4304UDC     C347336  14.116  15.737  16.420 -0.9585 -0.1163 -1.1715
 4304UDC     C447337  14.200  15.824  16.515 -0.4910 -0.2736 -0.3653
 4304UDC     C547338  14.262  15.731  16.624  0.3873  0.7918 -0.1889
 4304UDC     C647339  14.288  15.810  16.753 -0.6399  0.0267 -0.2957
 4304UDC     C747340  14.405  15.755  16.836  0.4588 -0.2218  0.9943
 4304UDC     C847341  14.541  15.832  16.834 -0.7248 -0.3767  0.4510
 4304UDC     C947342  14.545  15.979  16.878 -1.3134  0.5333  0.0214
 4304UDC    C1047343  14.688  16.037  16.860  1.2272  0.0779 -0.2476
 4304UDC    C1147344  14.717  16.180  16.916  0.4070  0.4124  0.3232
 4305UDC     C147345   2.018  10.138   4.464 -0.2032 -1.3291  0.3165
 4305UDC     C247346   1.868  10.156   4.443  0.0147 -0.5753  0.0602
 4305UDC     C347347   1.825  10.265   4.333  0.0849 -0.7461 -0.6214
 4305UDC     C447348   1.914  10.391   4.331  0.0207 -0.6015  0.9202
 4305UDC     C547349   1.845  10.507   4.417 -0.9653 -0.5874  0.2956
 4305UDC     C647350   1.759  10.606   4.339 -0.8569 -1.2198  0.3007
 4305UDC     C747351   1.751  10.739   4.416 -0.1730 -0.4112 -0.7650
 4305UDC     C847352   1.659  10.849   4.363 -0.0088  0.1940  0.9002
 4305UDC     C947353   1.510  10.820   4.373 -0.1718 -0.3304  0.8809
 4305UDC    C1047354   1.432  10.930   4.297  0.0560  1.3101  1.1531
 4305UDC    C1147355   1.475  11.075   4.318 -0.3403 -0.5154  0.0522
 4306UDC     C147356  17.382   5.478  19.998 -0.5407 -0.5775  0.2479
 4306UDC     C247357  17.471   5.394  19.903 -0.8048 -0.0448 -0.9310
 4306UDC     C347358  17.616   5.451  19.882  0.0577 -0.1791 -0.4500
 4306UDC     C447359  17.721   5.343  19.848  0.1883  0.7583 -0.0924
 4306UDC     C547360  17.830   5.367  19.743 -0.2126 -0.5331 -0.3661
 4306UDC     C647361  17.814   5.338  19.596 -0.0062  0.3427  0.9032
 4306UDC     C747362  17.898   5.413  19.488 -0.3027 -1.0521 -0.3449
 4306UDC     C847363  18.027   5.345  19.447 -0.9672  0.0740  1.1362
 4306UDC     C947364  18.082   5.408  19.313  0.1437 -0.0536  0.4047
 4306UDC    C1047365  17.980   5.404  19.200  0.6120  0.0399  0.3211
 4306UDC    C1147366  18.041   5.453  19.068  0.7029 -0.1116 -0.8676
 4307UDC     C147367   7.757   4.024   5.969  0.5169 -0.5661  0.7992
 4307UDC     C247368   7.603   4.030   6.018 -0.3497 -0.3328 -0.2813
 4307UDC     C347369   7.520   4.160   6.022  0.3148 -0.6523  0.4571
 4307UDC     C447370   7.375   4.152   6.067  0.0555  0.6502 -0.0935
 4307UDC     C547371   7.262   4.145   5.959  0.5615 -0.0960  0.0086
 4307UDC     C647372   7.122   4.161   6.016  0.1845  0.4305  0.4619
 4307UDC     C747373   7.100   4.298   6.080  0.5964 -0.2815 -1.2801
 4307UDC     C847374   7.078   4.425   5.994 -0.5543 -0.1299  0.1048
 4307UDC     C947375   7.045   4.558   6.073  0.2336 -0.3209 -0.5795
 4307UDC    C1047376   7.171   4.579   6.166  1.0710 -0.3468 -0.1600
 4307UDC    C1147377   7.308   4.572   6.090 -0.0273 -0.7606  0.2055
 4308UDC     C147378  17.929  16.694  12.850  0.3573  0.2858  0.5096
 4308UDC     C247379  17.805  16.754  12.911  0.6908 -0.1534 -0.1050
 4308UDC     C347380  17.730  16.849  12.815  0.0196  0.7509 -0.3011
 4308UDC     C447381  17.649  16.964  12.878 -2.2102 -0.5598  1.2137
 4308UDC     C547382  17.600  17.064  12.778  0.6512  1.3477  0.5120
 4308UDC     C647383  17.505  17.011  12.664  0.0762 -0.7457 -0.1656
 4308UDC     C747384  17.410  17.133  12.634  0.1642 -0.5662  1.0418
 4308UDC     C847385  17.481  17.249  12.556  1.0926 -1.0055 -0.7314
 4308UDC     C947386  17.489  17.380  12.632 -0.5140  0.0622 -0.5357
 4308UDC    C1047387  17.422  17.479  12.532 -0.2571  0.8861 -0.0320
 4308UDC    C1147388  17.281  17.424  12.493  0.8818  0.2756  0.0954
 4309UDC     C147389   1.976   2.890  12.876 -0.4933  0.6062 -0.9254
 4309UDC     C247390   1.876   3.010  12.851 -0.1989  0.0008  1.0760
 4309UDC     C347391   1.927   3.158  12.856  0.0043 -1.0282 -0.4374
 4309UDC     C447392   1.800   3.254  12.862  0.1864 -0.3533  0.0678
 4309UDC     C547393   1.718   3.255  12.738  1.0764  0.4051 -0.8706
 4309UDC     C647394   1.580   3.312  12.756 -0.5111 -0.8249 -1.2927
 4309UDC     C747395   1.612   3.464  12.768  0.8606 -0.4251  1.2755
 4309UDC     C847396   1.508   3.553  12.837 -0.5038 -1.2430 -0.1055
 4309UDC     C947397   1.557   3.690  12.876 -0.1193 -0.0707  0.7907
 4309UDC    C1047398   1.707   3.666  12.898  0.2448  0.2101 -0.2354
 4309UDC    C1147399   1.797   3.789  12.897 -0.2118 -0.7322 -0.3578
 4310UDC     C147400   7.392   9.504  12.107 -0.5517 -0.3539  0.0215
 4310UDC     C247401   7.455   9.405  12.204  0.0771 -1.6641 -1.8940
 4310UDC     C347402   7.361   9.280  12.248  0.7225  0.0910  0.4799
 4310UDC     C447403   7.451   9.154  12.265  0.0609 -0.2224 -0.2350
 4310UDC     C547404   7.384   9.054  12.354  0.6561  0.6028  0.6699
 4310UDC     C647405   7.289   8.938  12.315  0.0776 -0.5833 -0.2041
 4310UDC     C747406   7.211   8.891  12.442 -0.1246  1.2797  0.2912
 4310UDC     C847407   7.118   8.768  12.426  0.1248 -0.1066 -0.3399
 4310UDC     C947408   7.098   8.692  12.560  0.1698  0.9883  0.2489
 4310UDC    C1047409   6.983   8.585  12.559 -0.1630  0.2155 -0.9114
 4310UDC    C1147410   6.976   8.519  12.697  1.4242 -0.0175 -0.7263
 4311UDC     C147411   3.632   6.878  18.808  0.6220 -1.5465 -0.1508
 4311UDC     C247412   3.596   6.742  18.838 -0.1082 -0.3419  0.2292
 4311UDC     C347413   3.686   6.685  18.942  0.1433  1.1183 -0.1043
 4311UDC     C447414   3.698   6.530  18.940  0.6678  0.0623  0.5726
 4311UDC     C547415   3.792   6.488  19.054 -0.6054 -0.9519  0.4787
 4311UDC     C647416   3.928   6.575  19.050  0.0994  0.8623 -0.8130
 4311UDC     C747417   4.035   6.503  18.978 -0.0121  0.8980 -0.6613
 4311UDC     C847418   4.168   6.519  19.058 -0.4135  0.0420 -1.0472
 4311UDC     C947419   4.214   6.664  19.046  0.7963  0.9375 -0.7402
 4311UDC    C1047420   4.313   6.713  19.147 -0.5506 -0.7212 -0.1694
 4311UDC    C1147421   4.266   6.744  19.291 -0.7751  0.4117  0.0931
 4312UDC     C147422   2.129   0.921   3.729  0.2394 -1.1297  0.5277
 4312UDC     C247423   2.191   0.790   3.690 -0.0719  0.7563  0.3529
 4312UDC     C347424   2.263   0.702   3.807 -0.1910 -0.4912  0.6727
 4312UDC     C447425   2.397   0.649   3.761 -0.5368 -0.3009 -0.4752
 4312UDC     C547426   2.396   0.580   3.627 -0.1601 -0.0062  0.0001
 4312UDC     C647427   2.319   0.448   3.617  0.6888 -0.5000 -0.4074
 4312UDC     C747428   2.393   0.339   3.543  0.3087  0.3721  0.6334
 4312UDC     C847429   2.370   0.352   3.388  0.1230 -0.1498 -0.8033
 4312UDC     C947430   2.226   0.368   3.342 -0.4490 -0.4319 -0.3174
 4312UDC    C1047431   2.214   0.310   3.203 -0.6530 -0.3030 -0.2583
 4312UDC    C1147432   2.095   0.381   3.119 -0.3592  0.1115 -0.6870
 4313UDC     C147433  17.386   2.171   9.268  0.1468  0.7736 -0.1399
 4313UDC     C247434  17.507   2.123   9.192 -0.8545  0.5607  0.2341
 4313UDC     C347435  17.468   2.019   9.076 -0.6097  0.2485  0.2605
 4313UDC     C447436  17.376   2.100   8.990 -0.0995  0.4549 -0.3941
 4313UDC     C547437  17.309   2.016   8.886  0.5346 -0.9651 -0.3348
 4313UDC     C647438  17.189   2.082   8.832  0.7575 -1.0400  0.3976
 4313UDC     C747439  17.111   2.020   8.711  1.1127 -0.8558  0.8546
 4313UDC     C847440  17.077   1.879   8.759 -0.1603 -0.3400  0.7134
 4313UDC     C947441  17.015   1.812   8.634  0.0350 -0.1225 -0.7111
 4313UDC    C1047442  17.101   1.819   8.511 -0.9116  0.5247  0.2578
 4313UDC    C1147443  17.114   1.696   8.419  0.5434  0.2986  0.9638
 4314UDC     C147444   7.244  16.944   6.161  0.7429  0.9169  0.4448
 4314UDC     C247445   7.126  16.867   6.233  0.5285 -0.2366 -0.0604
 4314UDC     C347446   7.122  16.719   6.213  0.3257  0.9346  0.5292
 4314UDC     C447447   7.065  16.680   6.067 -0.9268  0.8681 -0.1611
 4314UDC     C547448   7.072  16.531   6.018 -0.8091 -0.5965 -1.0205
 4314UDC     C647449   7.173  16.481   5.909 -0.3722 -0.5715 -0.6109
 4314UDC     C747450   7.189  16.328   5.925 -0.3239  0.0708 -0.6065
 4314UDC     C847451   7.245  16.293   5.785  0.1745  1.1589 -0.3646
 4314UDC     C947452   7.285  16.144   5.779  0.0055  0.3153  0.2310
 4314UDC    C1047453   7.246  16.123   5.634  1.2967  0.8178  0.5235
 4314UDC    C1147454   7.328  15.991   5.591  0.2075 -0.1661 -0.4692
 4315UDC     C147455  11.967   2.919  19.890 -0.8708  1.3692 -1.1034
 4315UDC     C247456  11.908   2.896  20.040  0.1605 -0.8313  1.0119
 4315UDC     C347457  11.793   2.799  20.035 -0.0655  0.5979 -0.5928
 4315UDC     C447458  11.677   2.857  19.953 -0.3542 -0.4061  0.2573
 4315UDC     C547459  11.559   2.759  19.928  0.6374 -0.0107 -0.2443
 4315UDC     C647460  11.451   2.830  19.853 -0.0509 -0.9700 -0.9467
 4315UDC     C747461  11.428   2.963  19.920  1.0676 -0.5824 -0.3023
 4315UDC     C847462  11.344   3.056  19.825  1.2540  0.4606 -0.0807
 4315UDC     C947463  11.350   3.202  19.865 -0.3051  0.7234 -0.8791
 4315UDC    C1047464  11.229   3.289  19.835  0.3154  0.2591 -1.0887
 4315UDC    C1147465  11.237   3.430  19.884  0.8221  0.9292 -1.0259
 4316UDC     C147466   6.867   9.068   0.244 -0.2466 -0.2535  0.5091
 4316UDC     C247467   6.906   8.915   0.227 -0.4955 -1.1122 -0.1665
 4316UDC     C347468   6.875   8.822   0.345  0.2070  0.9577 -0.0003
 4316UDC     C447469   6.918   8.668   0.346  0.6150  0.1384 -0.4567
 4316UDC     C547470   7.040   8.641   0.256 -0.8296 -0.3712 -0.2168
 4316UDC     C647471   7.176   8.687   0.310 -0.1595 -0.0396  0.3386
 4316UDC     C747472   7.283   8.698   0.201 -0.8969 -0.5229 -0.3327
 4316UDC     C847473   7.425   8.742   0.246  0.6901  0.3938  0.4213
 4316UDC     C947474   7.535   8.667   0.169  0.7118 -0.6035  0.2759
 4316UDC    C1047475   7.676   8.720   0.172 -0.6488  0.6824  1.0016
 4316UDC    C1147476   7.677   8.859   0.151  0.0069  0.0915  0.2415
 4317UDC     C147477  13.524  16.373  11.437 -0.1965 -0.3837  0.6575
 4317UDC     C247478  13.406  16.430  11.346  0.3797 -0.3816  0.1670
 4317UDC     C347479  13.270  16.357  11.368  0.7232  0.2236  1.4386
 4317UDC     C447480  13.137  16.431  11.359  0.1165  0.2176  1.0601
 4317UDC     C547481  13.002  16.356  11.358 -0.4707 -0.2710 -0.6315
 4317UDC     C647482  12.984  16.282  11.227 -0.3690 -0.1610 -0.8615
 4317UDC     C747483  12.887  16.163  11.267 -0.0574  0.4656 -0.6000
 4317UDC     C847484  12.945  16.081  11.376  0.5577 -0.7316  0.9021
 4317UDC     C947485  12.890  15.937  11.359  0.8928 -0.5416 -0.7719
 4317UDC    C1047486  12.958  15.869  11.482  0.2380  0.8368 -0.5209
 4317UDC    C1147487  12.927  15.717  11.503 -1.1888  1.0413 -0.7802
 4318UDC     C147488   7.165  13.382   7.340  0.1099 -0.1219  0.6400
 4318UDC     C247489   7.060  13.361   7.230 -0.4698  0.9884 -0.4644
 4318UDC     C347490   7.083  13.240   7.138  1.0713  0.6581 -0.0602
 4318UDC     C447491   6.950  13.158   7.123  0.1798 -0.3870  0.2646
 4318UDC     C547492   6.948  13.015   7.073  0.6137  0.0781 -0.5958
 4318UDC     C647493   6.806  12.957   7.049  1.2664 -0.9711  0.6414
 4318UDC     C747494   6.749  13.012   6.914  0.7217  0.1637 -0.3798
 4318UDC     C847495   6.836  12.968   6.798  0.0265 -1.0342 -0.4888
 4318UDC     C947496   6.750  12.957   6.660  0.3151 -0.7464 -1.2788
 4318UDC    C1047497   6.698  13.109   6.633 -0.4179  0.1366  0.0373
 4318UDC    C1147498   6.643  13.092   6.487 -0.6024  0.1963 -0.1345
 4319UDC     C147499  12.107   9.320   9.752 -0.1510 -0.1412  0.0802
 4319UDC     C247500  12.079   9.357   9.610  0.0911 -0.1475  0.3837
 4319UDC     C347501  12.172   9.311   9.498 -0.9599 -0.3402 -0.5100
 4319UDC     C447502  12.093   9.347   9.373 -0.9211  0.0793 -0.2560
 4319UDC     C547503  12.179   9.318   9.249 -0.1004  0.2627  1.0845
 4319UDC     C647504  12.228   9.170   9.233  0.2793 -0.8410 -1.8847
 4319UDC     C747505  12.198   9.107   9.097  1.2379 -0.1176 -0.0111
 4319UDC     C847506  12.052   9.072   9.084  0.2215  0.2015 -0.0338
 4319UDC     C947507  12.008   8.976   8.980 -0.1965  0.4776 -0.8600
 4319UDC    C1047508  11.860   8.981   8.950  1.3337 -0.4931  0.5792
 4319UDC    C1147509  11.800   9.128   8.928  0.4723  0.4084 -0.3833
 4320UDC     C147510   0.885  13.167   4.707 -0.1097  0.4028  0.2078
 4320UDC     C247511   0.886  13.203   4.858 -0.1654  0.1609  0.7649
 4320UDC     C347512   1.007  13.259   4.921  0.5554 -0.1716  0.3067
 4320UDC     C447513   1.002  13.285   5.073 -1.1895 -0.1631 -0.7449
 4320UDC     C547514   0.871  13.348   5.118  0.3556  0.5248 -1.0363
 4320UDC     C647515   0.859  13.507   5.132  0.0599  1.2000  0.2982
 4320UDC     C747516   0.718  13.564   5.151 -0.0543 -0.2638 -0.2287
 4320UDC     C847517   0.741  13.709   5.195  1.1406  0.3547  0.2063
 4320UDC     C947518   0.615  13.793   5.222  1.5636  0.4515  0.5827
 4320UDC    C1047519   0.551  13.859   5.095 -0.2595  0.5894 -0.4954
 4320UDC    C1147520   0.416  13.920   5.121 -0.5038 -0.3631 -0.1340
 4321UDC     C147521   3.114   1.033  16.449  0.7185 -0.4898  0.6500
 4321UDC     C247522   3.078   0.909  16.527  0.6746  1.2538 -0.2720
 4321UDC     C347523   3.190   0.869  16.617 -0.2491 -0.0410  0.0648
 4321UDC     C447524   3.172   0.726  16.674 -0.2342 -0.3415  0.2292
 4321UDC     C547525   3.187   0.629  16.565  0.2871  0.8797  0.3826
 4321UDC     C647526   3.180   0.481  16.616  0.0100 -0.1726 -1.1374
 4321UDC     C747527   3.132   0.366  16.524 -0.8375  0.6470  0.4210
 4321UDC     C847528   2.976   0.364  16.490  0.2672  0.3499  0.1734
 4321UDC     C947529   2.970   0.280  16.362 -1.2528 -0.8653 -0.2807
 4321UDC    C1047530   2.917   0.348  16.240  0.1671  0.0492  1.1259
 4321UDC    C1147531   2.768   0.360  16.209 -0.3853  0.1267  0.3073
 4322UDC     C147532  19.989  10.621  17.325  0.2592  0.2117  0.3254
 4322UDC     C247533  20.140  10.606  17.351  0.0019 -0.0864  1.6585
 4322UDC     C347534  20.216  10.554  17.219 -0.1707  0.7408 -0.0634
 4322UDC     C447535  20.187  10.403  17.186  0.0655  0.0870 -1.0518
 4322UDC     C547536  20.125  10.381  17.050  0.4349 -0.5720 -0.1183
 4322UDC     C647537  20.079  10.239  17.028 -0.2356 -0.3825 -0.1850
 4322UDC     C747538  19.927  10.238  17.026 -0.7931  0.1858 -0.2958
 4322UDC     C847539  19.898  10.183  16.891 -0.8029  0.6350 -0.0097
 4322UDC     C947540  19.749  10.175  16.847  0.2720  0.0782  0.0076
 4322UDC    C1047541  19.697  10.319  16.830  0.5397  1.0538 -0.4255
 4322UDC    C1147542  19.545  10.315  16.818 -1.4311  0.3168 -0.2233
 4323UDC     C147543  15.179   2.541  10.584  0.1416 -0.2057 -0.6997
 4323UDC     C247544  15.219   2.413  10.656  1.1705  0.6221  0.4929
 4323UDC     C347545  15.113   2.354  10.754 -0.4231  0.3805 -0.8831
 4323UDC     C447546  15.160   2.241  10.844 -0.5887 -0.2157 -0.6470
 4323UDC     C547547  15.047   2.167  10.914 -0.3927  0.5441 -1.0438
 4323UDC     C647548  15.075   2.026  10.959 -0.2814  0.0353 -0.4031
 4323UDC     C747549  14.948   1.952  10.969 -0.3931  0.8559 -0.1760
 4323UDC     C847550  14.957   1.797  10.978 -0.4902  0.0776 -1.0338
 4323UDC     C947551  14.945   1.773  11.132 -0.3636 -0.2255  0.6879
 4323UDC    C1047552  14.802   1.802  11.177  0.7918 -0.4440 -0.1363
 4323UDC    C1147553  14.792   1.754  11.319  0.1417  0.4519 -0.2947
 4324UDC     C147554  10.336  12.785  14.618  0.1870  0.8903  0.4001
 4324UDC     C247555  10.473  12.841  14.645 -0.0252 -0.8883 -1.1504
 4324UDC     C347556  10.567  12.827  14.526  1.3365  0.5705 -0.2051
 4324UDC     C447557  10.635  12.695  14.559 -1.3092 -0.6514 -0.6093
 4324UDC     C547558  10.750  12.643  14.470 -0.3073 -0.0172 -0.4384
 4324UDC     C647559  10.794  12.498  14.489 -1.1874 -0.6993 -0.0967
 4324UDC     C747560  10.713  12.378  14.438 -0.1592  0.3884  0.5652
 4324UDC     C847561  10.714  12.378  14.282 -0.0307  0.2892 -0.5004
 4324UDC     C947562  10.721  12.235  14.236  0.3060  0.8894  0.6573
 4324UDC    C1047563  10.624  12.216  14.119 -0.1179  0.0099 -0.3748
 4324UDC    C1147564  10.654  12.323  14.016  0.2248  0.5087 -0.4119
 4325UDC     C147565  12.826  14.546  17.253  1.0400 -0.9141  0.0075
 4325UDC     C247566  12.703  14.570  17.345  1.1242  0.5871 -0.2325
 4325UDC     C347567  12.726  14.486  17.473 -0.5166 -0.8152  0.0367
 4325UDC     C447568  12.639  14.502  17.591  0.0813 -0.0734 -0.3824
 4325UDC     C547569  12.493  14.482  17.536 -0.5817  0.0271  1.0550
 4325UDC     C647570  12.403  14.551  17.649  0.5932  0.1483  0.0642
 4325UDC     C747571  12.411  14.704  17.618  0.5760 -0.7822  0.0576
 4325UDC     C847572  12.309  14.798  17.688 -0.9982  0.0499  0.4104
 4325UDC     C947573  12.352  14.930  17.630  0.6293 -1.4223 -0.0645
 4325UDC    C1047574  12.219  14.966  17.564  0.1562 -0.7680 -0.1427
 4325UDC    C1147575  12.140  15.056  17.656 -0.3732  0.1205  0.0259
 4326UDC     C147576  12.680  14.496  13.143  0.3537 -0.1054  0.4865
 4326UDC     C247577  12.594  14.418  13.248 -0.5821  0.1782 -0.3718
 4326UDC     C347578  12.571  14.271  13.208  0.1030 -0.0610  0.7400
 4326UDC     C447579  12.443  14.254  13.137 -0.3397 -0.6780  0.8567
 4326UDC     C547580  12.443  14.132  13.049  0.5277 -0.9136  0.4720
 4326UDC     C647581  12.322  14.120  12.960 -0.3693  0.1195 -0.2633
 4326UDC     C747582  12.313  14.030  12.833 -0.3974  0.1261 -0.0118
 4326UDC     C847583  12.404  14.083  12.726  0.0154  0.0965  0.4121
 4326UDC     C947584  12.389  14.011  12.591 -1.3235 -0.4427 -0.3153
 4326UDC    C1047585  12.457  13.871  12.572  0.2033 -0.6166 -0.1160
 4326UDC    C1147586  12.363  13.752  12.590 -0.4141 -0.9491  0.6612
 4327UDC     C147587   5.720  16.000   7.534 -0.5136  0.8362  0.4639
 4327UDC     C247588   5.593  16.056   7.469 -0.7824  0.8349 -0.5148
 4327UDC     C347589   5.533  16.180   7.543 -0.4111  0.0673  0.6575
 4327UDC     C447590   5.442  16.155   7.668  0.3450 -0.3751 -0.3782
 4327UDC     C547591   5.399  16.288   7.743 -0.1688  1.1920 -0.8571
 4327UDC     C647592   5.302  16.382   7.673 -0.6210 -0.1914 -0.6460
 4327UDC     C747593   5.291  16.534   7.692  0.2718  0.9656  1.4526
 4327UDC     C847594   5.211  16.612   7.589  1.0165 -1.3665  0.4138
 4327UDC     C947595   5.228  16.765   7.611  1.4135  0.4005  0.2344
 4327UDC    C1047596   5.329  16.848   7.520 -0.4210  0.2415 -0.1864
 4327UDC    C1147597   5.266  16.856   7.378 -0.1628  0.1229  0.5305
 4328UDC     C147598  16.846  11.843   4.957  0.7716 -0.1614  0.8197
 4328UDC     C247599  16.696  11.825   5.000  0.4486 -0.8771  0.4076
 4328UDC     C347600  16.671  11.715   5.100 -1.3285  0.0801 -1.0122
 4328UDC     C447601  16.528  11.705   5.168 -0.5979  0.6747  0.0282
 4328UDC     C547602  16.405  11.797   5.137  0.0161  0.5823  0.5494
 4328UDC     C647603  16.272  11.727   5.140  1.6366 -0.3477 -0.6043
 4328UDC     C747604  16.161  11.822   5.080 -1.0044 -0.3115 -0.1078
 4328UDC     C847605  16.030  11.756   5.049 -0.3117 -0.4757  0.6488
 4328UDC     C947606  15.915  11.852   5.084 -0.0683 -0.4894  0.3167
 4328UDC    C1047607  15.778  11.787   5.050  0.2231 -0.9513  0.1760
 4328UDC    C1147608  15.666  11.891   5.034 -0.5697  0.1589  0.0637
 4329UDC     C147609   2.783  13.847   8.403  0.7833  0.4778 -0.4056
 4329UDC     C247610   2.736  13.892   8.544 -0.2690  0.5515  0.2708
 4329UDC     C347611   2.837  13.916   8.659 -0.2103 -0.2855  0.1088
 4329UDC     C447612   2.792  14.016   8.766  0.0538  0.3410 -0.2214
 4329UDC     C547613   2.916  14.093   8.819  0.1677  0.2362  0.4695
 4329UDC     C647614   2.886  14.212   8.920 -0.5670  0.6282 -0.8685
 4329UDC     C747615   2.786  14.318   8.874  0.0508 -0.5287  0.6765
 4329UDC     C847616   2.786  14.447   8.963  0.2833 -0.3986 -0.1287
 4329UDC     C947617   2.911  14.512   9.010 -0.0707 -0.5599 -1.2067
 4329UDC    C1047618   2.874  14.626   9.110 -0.6194  1.3772  0.0358
 4329UDC    C1147619   2.993  14.704   9.159  0.2468 -0.6232 -0.5862
 4330UDC     C147620   1.739  17.899  16.271  0.3275  0.6951  0.0401
 4330UDC     C247621   1.866  17.874  16.338 -0.9996  1.1335 -0.4761
 4330UDC     C347622   1.922  17.956  16.462  0.4044  0.3542  0.0479
 4330UDC     C447623   1.827  17.951  16.581  0.9989  1.0945 -1.4199
 4330UDC     C547624   1.856  18.043  16.697 -0.4914  0.6333 -0.4464
 4330UDC     C647625   1.802  18.179  16.676  0.3506 -1.1331  0.1095
 4330UDC     C747626   1.787  18.266  16.804  0.2444 -0.2762 -0.0125
 4330UDC     C847627   1.713  18.396  16.813  0.2634  0.0867 -0.2237
 4330UDC     C947628   1.776  18.522  16.744  0.8690  0.0322 -0.3289
 4330UDC    C1047629   1.698  18.646  16.796 -0.4638  0.4886  0.2691
 4330UDC    C1147630   1.570  18.656  16.721  0.4185 -0.5441 -0.1674
 4331UDC     C147631   9.973   7.450   6.680  0.7238  1.1880 -0.7026
 4331UDC     C247632   9.823   7.398   6.692  0.6751  0.3067 -0.5848
 4331UDC     C347633   9.802   7.259   6.648 -0.1788  0.3555 -0.1645
 4331UDC     C447634   9.650   7.228   6.637 -0.7369 -0.4341 -0.2295
 4331UDC     C547635   9.629   7.097   6.561 -0.1578 -0.7653 -0.0145
 4331UDC     C647636   9.476   7.083   6.526  0.1163  0.0317  0.8798
 4331UDC     C747637   9.427   7.126   6.388  0.3376 -0.0815 -0.5726
 4331UDC     C847638   9.281   7.077   6.370 -0.1392 -0.5088 -0.2679
 4331UDC     C947639   9.170   7.169   6.305 -0.0097  0.6099  0.0353
 4331UDC    C1047640   9.119   7.283   6.392  0.0618 -0.6264 -0.3658
 4331UDC    C1147641   8.994   7.340   6.328  0.2885 -0.0087  1.4975
 4332UDC     C147642   7.995  10.802  16.348  0.2574  0.0781 -0.8336
 4332UDC     C247643   8.035  10.791  16.203  0.4767  0.2834  0.5512
 4332UDC     C347644   8.182  10.816  16.189  0.1010 -0.5020  0.9455
 4332UDC     C447645   8.185  10.969  16.191 -0.3590  0.1958  0.2317
 4332UDC     C547646   8.099  11.054  16.096 -1.0360  0.2737 -0.3387
 4332UDC     C647647   8.021  11.168  16.161 -0.6276 -0.9470 -0.8802
 4332UDC     C747648   8.115  11.278  16.211  0.2086  0.0522 -0.2539
 4332UDC     C847649   8.066  11.421  16.212  0.5115 -0.6290 -0.5422
 4332UDC     C947650   8.163  11.522  16.271  1.3063  0.7390  0.6280
 4332UDC    C1047651   8.130  11.652  16.195 -0.1413  0.0235  1.1988
 4332UDC    C1147652   8.189  11.791  16.230 -0.8294 -0.3203 -0.0392
 4333UDC     C147653   9.798  16.246  16.082  0.3017 -0.0665  0.4164
 4333UDC     C247654   9.813  16.149  16.200 -0.5555 -0.6927 -1.1753
 4333UDC     C347655   9.952  16.082  16.225 -0.4882  0.4297 -0.7293
 4333UDC     C447656   9.961  15.970  16.328 -0.0227 -0.8977 -1.4221
 4333UDC     C547657  10.106  15.925  16.354  0.5810 -0.3466 -0.4482
 4333UDC     C647658  10.101  15.813  16.462  0.6828  0.2155  0.2266
 4333UDC     C747659  10.071  15.668  16.413 -0.8195 -0.1313  0.0573
 4333UDC     C847660   9.930  15.619  16.371 -0.3350 -0.4329  1.1689
 4333UDC     C947661   9.898  15.521  16.252  0.3075 -0.0651 -0.6893
 4333UDC    C1047662   9.930  15.371  16.285  0.5587  0.7715 -0.1160
 4333UDC    C1147663  10.078  15.320  16.265  0.1899 -0.4415  0.9150
 4334UDC     C147664  15.184  19.084  11.044 -0.8821 -0.3762  0.1181
 4334UDC     C247665  15.261  19.120  11.174  0.2230 -0.1633 -0.4230
 4334UDC     C347666  15.249  19.265  11.209 -1.1680  0.0345 -0.9888
 4334UDC     C447667  15.303  19.366  11.104 -0.5742  0.6899  0.8855
 4334UDC     C547668  15.366  19.486  11.183 -0.0342  0.1561  0.4161
 4334UDC     C647669  15.463  19.476  11.303 -0.4613  0.2547  1.0634
 4334UDC     C747670  15.507  19.614  11.349 -0.3446  0.5521 -0.2019
 4334UDC     C847671  15.600  19.636  11.463 -0.4981  0.3945  0.8493
 4334UDC     C947672  15.574  19.540  11.579  0.4897  0.3548 -0.7341
 4334UDC    C1047673  15.469  19.572  11.682 -0.1352  0.9407  0.2479
 4334UDC    C1147674  15.415  19.469  11.779  0.0537 -0.4727  0.3101
 4335UDC     C147675   3.952  14.565  16.947  1.5588  0.2478 -0.1938
 4335UDC     C247676   3.977  14.561  17.100  0.8759 -0.0146 -0.3754
 4335UDC     C347677   4.122  14.516  17.128  0.5474 -0.2970 -0.7792
 4335UDC     C447678   4.148  14.477  17.278  0.0616  0.4693  0.9744
 4335UDC     C547679   4.286  14.404  17.308 -0.6069 -0.7274  0.2507
 4335UDC     C647680   4.309  14.302  17.195  0.2340  0.2292  1.2804
 4335UDC     C747681   4.460  14.275  17.158  0.3887  0.1406  0.1282
 4335UDC     C847682   4.476  14.188  17.032  0.0202  0.0605  0.9291
 4335UDC     C947683   4.623  14.151  17.005  0.2513  0.3023 -0.5139
 4335UDC    C1047684   4.675  14.061  16.891 -0.5929 -0.3137  0.7130
 4335UDC    C1147685   4.817  14.107  16.840 -0.3184 -0.3238  0.2724
 4336UDC     C147686  17.242   6.702   8.138 -0.5192  0.2939 -0.2746
 4336UDC     C247687  17.245   6.696   7.985  0.1863  0.5356  0.2883
 4336UDC     C347688  17.298   6.814   7.908  0.3606  0.3429  1.3019
 4336UDC     C447689  17.245   6.776   7.764  0.5765 -1.2769  0.2666
 4336UDC     C547690  17.104   6.855   7.759 -0.5242  1.7519  0.5056
 4336UDC     C647691  17.141   7.000   7.786 -0.1243 -0.8699 -0.4154
 4336UDC     C747692  17.024   7.108   7.775 -0.5323 -0.6249 -0.5190
 4336UDC     C847693  17.078   7.247   7.816  0.6277  0.2872  0.9029
 4336UDC     C947694  17.072   7.275   7.967  1.1870 -0.2546  0.2319
 4336UDC    C1047695  17.165   7.199   8.062 -0.0212 -0.4027  0.0445
 4336UDC    C1147696  17.149   7.244   8.206 -0.8165 -0.1125 -0.2071
 4337UDC     C147697   7.280  16.486   2.151  0.6712  0.0802  0.0866
 4337UDC     C247698   7.213  16.554   2.030 -0.7171  0.2995 -0.4385
 4337UDC     C347699   7.081  16.488   1.992  0.6382 -0.8956  0.3365
 4337UDC     C447700   6.999  16.604   1.930  0.1402 -0.4073  0.9919
 4337UDC     C547701   6.866  16.542   1.865 -0.2623 -1.3357  0.9123
 4337UDC     C647702   6.870  16.572   1.708 -0.7675  1.1140 -0.4195
 4337UDC     C747703   6.731  16.543   1.659  0.3180 -0.6925 -0.4431
 4337UDC     C847704   6.677  16.673   1.595 -0.0236  0.1782  1.0866
 4337UDC     C947705   6.620  16.770   1.698 -0.1252 -0.2084 -0.3307
 4337UDC    C1047706   6.612  16.916   1.660 -1.1170  0.5545 -0.2538
 4337UDC    C1147707   6.748  16.972   1.614 -0.1311  0.1837  1.2515
 4338UDC     C147708  18.249   0.004   1.850 -0.3138 -0.3030  0.2410
 4338UDC     C247709  18.240   0.048   1.706  0.4315  1.0213 -0.1887
 4338UDC     C347710  18.147   0.171   1.678  0.3225  1.1913 -0.6958
 4338UDC     C447711  18.225   0.292   1.736  1.4078 -0.4248  0.0614
 4338UDC     C547712  18.137   0.400   1.790  0.8259  0.0238  0.0023
 4338UDC     C647713  18.030   0.440   1.699 -0.3351 -0.1649 -0.5528
 4338UDC     C747714  18.078   0.515   1.578  0.4960  1.0755  0.0057
 4338UDC     C847715  18.161   0.638   1.574 -0.3405 -0.7040 -0.3590
 4338UDC     C947716  18.153   0.726   1.446 -0.2195 -0.1895  0.0329
 4338UDC    C1047717  18.020   0.705   1.375  0.9556  0.5620 -0.1012
 4338UDC    C1147718  18.054   0.727   1.234  0.1852 -0.1039 -0.5323
 4339UDC     C147719  15.220   5.078   5.395 -0.7590 -0.0323 -0.2409
 4339UDC     C247720  15.295   4.990   5.495  0.3220  0.1841 -0.3069
 4339UDC     C347721  15.216   4.896   5.594 -0.2408  0.0424  1.1475
 4339UDC     C447722  15.293   4.771   5.640  0.0114  0.2686  0.1053
 4339UDC     C547723  15.295   4.636   5.559  0.6428 -0.4889  0.1126
 4339UDC     C647724  15.388   4.638   5.437 -0.0788  0.1552  0.4542
 4339UDC     C747725  15.416   4.505   5.377 -0.0920  0.4962 -0.3736
 4339UDC     C847726  15.457   4.499   5.224 -0.6102  2.0288  0.6106
 4339UDC     C947727  15.393   4.596   5.115  0.1858  0.4541 -0.3634
 4339UDC    C1047728  15.267   4.526   5.043 -0.8855 -0.3442 -0.2073
 4339UDC    C1147729  15.210   4.609   4.928 -0.1439  0.6429 -0.2380
 4340UDC     C147730   3.360  13.606  19.273  0.9082  0.1917 -0.0064
 4340UDC     C247731   3.370  13.754  19.230  2.2438  0.3305 -0.0175
 4340UDC     C347732   3.296  13.854  19.322 -0.5026  0.2774 -0.5211
 4340UDC     C447733   3.353  13.863  19.470  0.9885 -0.5611 -1.0398
 4340UDC     C547734   3.286  13.953  19.576  0.5188 -0.7567  0.4883
 4340UDC     C647735   3.134  13.974  19.557 -0.0232 -0.2492  0.8760
 4340UDC     C747736   3.089  14.122  19.585  0.2486  0.3207 -0.3885
 4340UDC     C847737   3.027  14.188  19.461 -0.0107 -0.1683  0.0975
 4340UDC     C947738   3.014  14.337  19.488 -0.1647 -0.5080 -1.3183
 4340UDC    C1047739   2.869  14.380  19.526  0.2265 -1.7352  0.1388
 4340UDC    C1147740   2.841  14.513  19.462  0.4372 -0.0999 -0.9369
 4341UDC     C147741  13.494   1.629  19.313  0.6913  0.8877  0.1416
 4341UDC     C247742  13.543   1.664  19.457 -0.7823  0.5183  0.2772
 4341UDC     C347743  13.584   1.538  19.548  1.0593 -0.7449  1.2820
 4341UDC     C447744  13.725   1.513  19.593 -0.1837 -0.2702 -0.3145
 4341UDC     C547745  13.763   1.595  19.716 -0.3447 -0.1524 -0.6421
 4341UDC     C647746  13.673   1.545  19.832 -0.1484 -0.0137  0.3892
 4341UDC     C747747  13.738   1.430  19.905 -0.8654 -0.9052  0.1717
 4341UDC     C847748  13.869   1.485  19.961  0.1508 -0.2287 -0.4212
 4341UDC     C947749  13.862   1.568  20.098 -0.0925  0.2523 -0.7643
 4341UDC    C1047750  14.005   1.601  20.146  0.3170  0.5217 -0.7618
 4341UDC    C1147751  14.088   1.639  20.024 -0.3836 -1.2327  0.0141
 4342UDC     C147752   8.341  13.135   8.377 -0.0765  0.7063  0.6257
 4342UDC     C247753   8.286  13.280   8.384 -0.2444  0.6033  0.3024
 4342UDC     C347754   8.391  13.373   8.427 -0.2025 -0.4987 -0.2214
 4342UDC     C447755   8.518  13.357   8.339 -0.8804 -1.6657 -0.0916
 4342UDC     C547756   8.628  13.451   8.402  0.4440 -0.8278 -0.9813
 4342UDC     C647757   8.773  13.421   8.356 -0.4331  0.0161  0.0481
 4342UDC     C747758   8.809  13.476   8.211 -0.8615 -0.5133  0.6987
 4342UDC     C847759   8.831  13.368   8.103 -0.1738 -1.4924  1.0919
 4342UDC     C947760   8.816  13.426   7.956  0.7038  0.5000 -0.1770
 4342UDC    C1047761   8.672  13.472   7.937  1.0343  0.0177 -0.0845
 4342UDC    C1147762   8.638  13.543   7.803 -0.2556 -0.0393  0.3109
 4343UDC     C147763   8.146  17.440  12.135  0.3033  0.5348 -0.5860
 4343UDC     C247764   7.991  17.460  12.166  0.8170 -0.7088 -0.1671
 4343UDC     C347765   7.880  17.364  12.105  0.5753  1.2141  1.0612
 4343UDC     C447766   7.734  17.390  12.174 -0.4586  1.8343  0.7397
 4343UDC     C547767   7.642  17.270  12.151  0.1218 -0.2381 -0.5789
 4343UDC     C647768   7.686  17.152  12.233 -0.2617  1.6417  0.1341
 4343UDC     C747769   7.581  17.038  12.250 -0.3833 -0.0259  0.4877
 4343UDC     C847770   7.655  16.907  12.269 -0.9122 -0.4182  0.2972
 4343UDC     C947771   7.581  16.771  12.273  0.0617  0.8160 -0.6585
 4343UDC    C1047772   7.481  16.738  12.388  0.7532 -0.4291 -0.6515
 4343UDC    C1147773   7.515  16.783  12.533  0.5969  0.0505 -0.8174
 4344UDC     C147774   4.531  15.785   6.585 -0.6069  0.2398  0.2514
 4344UDC     C247775   4.490  15.918   6.532 -0.4702 -0.0875 -0.2960
 4344UDC     C347776   4.550  15.939   6.395 -0.3132 -0.5992 -0.6274
 4344UDC     C447777   4.535  16.075   6.334 -0.8361  0.1217 -0.2089
 4344UDC     C547778   4.412  16.111   6.258 -0.2203  0.1793 -0.3375
 4344UDC     C647779   4.404  16.049   6.115  0.2092  0.8365  0.0717
 4344UDC     C747780   4.284  16.105   6.036 -0.5560  0.4665  0.2293
 4344UDC     C847781   4.217  16.021   5.928 -0.9440 -0.2532 -0.4768
 4344UDC     C947782   4.322  15.990   5.812  0.3805 -0.6688 -1.0890
 4344UDC    C1047783   4.316  15.843   5.763  0.8227 -0.3218  1.3770
 4344UDC    C1147784   4.442  15.820   5.677  0.4481  0.3985 -0.0605
 4345UDC     C147785   2.435   4.266   3.652  0.1930 -0.2884 -0.4663
 4345UDC     C247786   2.552   4.313   3.557 -0.3384  0.3062  0.4664
 4345UDC     C347787   2.575   4.468   3.575 -0.4309 -0.6224  1.0984
 4345UDC     C447788   2.661   4.539   3.472  0.2004  0.1972 -0.0773
 4345UDC     C547789   2.728   4.664   3.541  0.1215  0.3642  0.4100
 4345UDC     C647790   2.844   4.630   3.635 -0.0810 -0.3792 -0.5259
 4345UDC     C747791   2.891   4.715   3.757  1.0516 -0.3222 -0.3802
 4345UDC     C847792   3.014   4.798   3.737  0.0536  0.2971 -0.0351
 4345UDC     C947793   3.035   4.931   3.662 -0.2942 -0.0313 -0.2499
 4345UDC    C1047794   2.905   5.011   3.661  0.6470 -0.0026  0.2196
 4345UDC    C1147795   2.907   5.150   3.599 -0.3336  0.2447 -0.1490
 4346UDC     C147796   1.204   3.099   6.724  0.2967  0.4398 -0.7055
 4346UDC     C247797   1.122   3.227   6.728 -0.2324  0.1388  0.3551
 4346UDC     C347798   0.991   3.240   6.803 -0.5214 -0.1217 -1.0670
 4346UDC     C447799   0.883   3.144   6.759  0.6451 -0.6074  0.8272
 4346UDC     C547800   0.772   3.107   6.859  1.3580  0.4134 -0.1370
 4346UDC     C647801   0.658   3.207   6.888 -0.6526 -0.1811 -0.9793
 4346UDC     C747802   0.538   3.173   6.972  0.4577  0.2517  0.1170
 4346UDC     C847803   0.549   3.143   7.120 -0.1386  0.0784  0.0602
 4346UDC     C947804   0.430   3.173   7.207 -0.3545 -0.0181  0.0221
 4346UDC    C1047805   0.462   3.134   7.360  0.2129 -0.2874 -0.1193
 4346UDC    C1147806   0.424   2.982   7.373 -0.5200  0.1921 -0.1474
 4347UDC     C147807  13.438  10.404  15.773 -0.3784  0.2835 -0.0951
 4347UDC     C247808  13.544  10.315  15.718  0.0885  1.1746  0.1662
 4347UDC     C347809  13.656  10.284  15.821 -0.4368 -1.7366  0.6914
 4347UDC     C447810  13.737  10.410  15.865  0.0551 -0.7438 -0.1409
 4347UDC     C547811  13.823  10.493  15.771 -0.1815 -0.1229 -0.9736
 4347UDC     C647812  13.846  10.636  15.829  0.3183  0.4682 -0.0473
 4347UDC     C747813  13.955  10.634  15.934  0.3105 -0.5262 -0.8281
 4347UDC     C847814  14.089  10.596  15.878  0.9391 -0.8134 -0.3664
 4347UDC     C947815  14.213  10.674  15.937  0.9357 -0.9268 -1.0338
 4347UDC    C1047816  14.195  10.830  15.920  1.2170 -0.6489 -0.1975
 4347UDC    C1147817  14.329  10.882  15.864 -0.1391  0.2670 -0.6511
 4348UDC     C147818   9.663   4.292  10.910 -1.5643  0.1497  1.1234
 4348UDC     C247819   9.759   4.177  10.952  0.2691  0.2311 -0.7281
 4348UDC     C347820   9.714   4.033  10.970  0.9143 -0.0607  0.2491
 4348UDC     C447821   9.598   4.001  11.062  0.1551  0.1139  0.7066
 4348UDC     C547822   9.549   3.856  11.055  0.0178 -0.1817  0.7142
 4348UDC     C647823   9.669   3.767  11.091  0.1856  0.4710  1.0565
 4348UDC     C747824   9.768   3.810  11.204  0.6452  0.9577  0.6011
 4348UDC     C847825   9.863   3.702  11.237 -0.2707 -0.1680 -0.3593
 4348UDC     C947826   9.967   3.737  11.356 -0.4886  0.1629  0.5796
 4348UDC    C1047827   9.902   3.695  11.491 -0.5333 -0.2573  1.3353
 4348UDC    C1147828  10.011   3.647  11.588 -0.4586 -0.0023  0.2359
 4349UDC     C147829   9.802   6.031   2.589  0.4596  0.7867 -0.1233
 4349UDC     C247830   9.678   5.952   2.570  1.7089  0.4479  0.6146
 4349UDC     C347831   9.549   6.039   2.567  0.3949 -0.0663 -0.4419
 4349UDC     C447832   9.442   5.935   2.534  0.4251 -0.7126  0.4261
 4349UDC     C547833   9.409   5.812   2.632  0.3838 -0.5972 -0.6201
 4349UDC     C647834   9.295   5.719   2.586 -0.2028 -0.8594 -0.2349
 4349UDC     C747835   9.276   5.602   2.677 -1.2859 -0.1196  0.2624
 4349UDC     C847836   9.137   5.551   2.702  0.0201 -0.3703  0.5657
 4349UDC     C947837   9.140   5.436   2.807 -0.1843  0.2940 -0.2397
 4349UDC    C1047838   9.017   5.362   2.774 -0.5627  0.3516 -0.1351
 4349UDC    C1147839   8.911   5.463   2.740  0.8470 -0.8696  0.6878
 4350UDC     C147840   4.747   6.793   4.562 -0.4331  0.0195  0.3506
 4350UDC     C247841   4.641   6.855   4.648  0.0972 -0.2887 -0.1777
 4350UDC     C347842   4.506   6.790   4.644  0.1336  0.3241  0.8288
 4350UDC     C447843   4.398   6.862   4.719  0.1933  0.1112 -0.3619
 4350UDC     C547844   4.266   6.792   4.694 -1.3092  0.5812  1.1513
 4350UDC     C647845   4.214   6.826   4.556 -0.4109  0.3501 -0.5878
 4350UDC     C747846   4.079   6.757   4.527 -0.8456 -0.0477  0.5329
 4350UDC     C847847   4.008   6.733   4.387  0.9109  2.0051 -0.6648
 4350UDC     C947848   3.879   6.651   4.375 -0.1097 -0.2095  0.1725
 4350UDC    C1047849   3.793   6.665   4.254  0.7415 -2.1041  0.9397
 4350UDC    C1147850   3.691   6.781   4.266  0.5105  0.8151 -0.3050
 4351UDC     C147851  11.411  13.171   5.092 -0.6414  0.7173 -0.1732
 4351UDC     C247852  11.420  13.322   5.065 -0.7945 -1.0526  0.1818
 4351UDC     C347853  11.442  13.426   5.180 -0.7487  0.1459 -0.0163
 4351UDC     C447854  11.355  13.388   5.306 -0.2683  0.5954 -0.4715
 4351UDC     C547855  11.397  13.311   5.436  0.2392  0.1476  0.3112
 4351UDC     C647856  11.495  13.397   5.526 -0.9278  0.2988 -0.0123
 4351UDC     C747857  11.498  13.376   5.680 -1.0730 -0.3369 -0.6040
 4351UDC     C847858  11.581  13.502   5.718 -0.4976  0.3160  0.2295
 4351UDC     C947859  11.633  13.474   5.863 -0.2372  0.2125 -0.9301
 4351UDC    C1047860  11.781  13.500   5.888 -0.5482 -0.7756  0.1123
 4351UDC    C1147861  11.835  13.521   6.031  0.2458  0.3606 -0.0434
 4352UDC     C147862  14.520  18.282   2.899 -0.9319  0.0631 -1.2609
 4352UDC     C247863  14.638  18.363   2.967 -0.5864 -0.4660 -0.3313
 4352UDC     C347864  14.686  18.310   3.102  0.0784 -0.4993  0.4574
 4352UDC     C447865  14.831  18.345   3.137 -0.0307 -0.5745 -0.1362
 4352UDC     C547866  14.875  18.354   3.292 -0.6979  0.1572 -0.1622
 4352UDC     C647867  14.999  18.444   3.323  0.5982  0.5879 -0.8087
 4352UDC     C747868  15.132  18.402   3.257  0.4705 -0.2046  0.8089
 4352UDC     C847869  15.252  18.509   3.261  0.6401  0.3900 -0.7661
 4352UDC     C947870  15.269  18.613   3.153  1.0433 -0.2619  0.0034
 4352UDC    C1047871  15.149  18.706   3.124  0.9911  0.9777 -0.9366
 4352UDC    C1147872  15.170  18.810   3.011  0.7721  0.7074 -0.2845
 4353UDC     C147873   1.384   2.842   9.634 -0.0201 -0.3748  0.5766
 4353UDC     C247874   1.499   2.831   9.527  0.2027 -0.8198 -0.7891
 4353UDC     C347875   1.513   2.949   9.426  0.4129 -0.0804  0.1316
 4353UDC     C447876   1.657   2.960   9.367  0.2782  0.3143  0.3395
 4353UDC     C547877   1.774   3.009   9.453 -0.0668 -0.7891  0.3503
 4353UDC     C647878   1.909   2.952   9.416  0.8326  0.7887 -0.5371
 4353UDC     C747879   1.908   2.796   9.387  0.3654 -0.7324  0.1592
 4353UDC     C847880   2.030   2.756   9.313 -0.4428 -0.4719  0.4537
 4353UDC     C947881   2.040   2.614   9.261 -1.2641 -0.2001  0.9071
 4353UDC    C1047882   2.034   2.579   9.114  1.4038  0.4822  0.3432
 4353UDC    C1147883   2.168   2.557   9.051  1.1813 -0.9904 -0.1022
 4354UDC     C147884  10.593   8.133   5.941  0.3437 -0.0594  0.7179
 4354UDC     C247885  10.654   8.169   5.794 -0.4854  1.0479 -0.3343
 4354UDC     C347886  10.809   8.169   5.808 -0.1228  0.5379 -0.3408
 4354UDC     C447887  10.873   8.306   5.767  0.2374  0.0416 -0.8816
 4354UDC     C547888  11.022   8.292   5.780 -0.9157  0.1969  0.1133
 4354UDC     C647889  11.076   8.269   5.915 -0.4317  0.2541 -0.6395
 4354UDC     C747890  11.209   8.203   5.914 -1.3167 -0.2719 -0.3126
 4354UDC     C847891  11.296   8.217   6.040  0.2624 -0.0537  0.2091
 4354UDC     C947892  11.340   8.359   6.072  1.2678 -0.6917 -0.0986
 4354UDC    C1047893  11.423   8.376   6.198 -0.0621 -0.0192  0.2351
 4354UDC    C1147894  11.351   8.319   6.317  0.7711  0.2903  1.3242
 4355UDC     C147895  12.462  16.131   6.498 -0.6082 -0.4141  0.8277
 4355UDC     C247896  12.482  15.978   6.526 -0.0338 -0.7987 -0.0801
 4355UDC     C347897  12.587  15.897   6.451  0.7954 -0.3078 -0.3592
 4355UDC     C447898  12.594  15.910   6.302  0.3823  0.9632  0.3995
 4355UDC     C547899  12.735  15.859   6.265  0.1004  1.0215  0.5588
 4355UDC     C647900  12.854  15.929   6.334 -0.2885 -1.1626  0.3419
 4355UDC     C747901  12.877  16.074   6.283  0.6684  1.2649 -0.2195
 4355UDC     C847902  12.917  16.074   6.132  1.7271 -0.4194  0.4498
 4355UDC     C947903  12.810  16.098   6.023 -0.6656  0.5214 -0.6809
 4355UDC    C1047904  12.803  16.247   5.992  0.6263 -0.2312  0.3096
 4355UDC    C1147905  12.694  16.278   5.889 -0.0949 -1.1147 -0.0900
 4356UDC     C147906  16.325   4.067   3.448 -0.1650  0.4156  0.5666
 4356UDC     C247907  16.270   3.998   3.576  0.7945  0.7103  0.8784
 4356UDC     C347908  16.252   4.097   3.693 -0.6585 -1.1835 -0.5881
 4356UDC     C447909  16.181   4.036   3.821  0.8340 -0.4645 -0.3062
 4356UDC     C547910  16.197   4.137   3.947  0.7390 -0.4302 -0.3538
 4356UDC     C647911  16.284   4.066   4.058  0.5743  0.3699  0.1824
 4356UDC     C747912  16.342   4.155   4.161 -0.6136  0.3159  0.1144
 4356UDC     C847913  16.282   4.289   4.177 -0.7284  1.0387  0.6888
 4356UDC     C947914  16.360   4.366   4.274 -0.5671  0.9797 -0.7053
 4356UDC    C1047915  16.368   4.298   4.413 -0.3072  0.0504  0.0493
 4356UDC    C1147916  16.319   4.401   4.515  0.6012 -0.4485 -0.6428
 4357UDC     C147917  10.098  12.525  11.363 -0.4651  0.5076  0.2192
 4357UDC     C247918  10.220  12.616  11.389  0.9687 -0.1794  0.2242
 4357UDC     C347919  10.287  12.618  11.524  0.1342 -0.3960 -0.8592
 4357UDC     C447920  10.428  12.693  11.540  0.2577 -0.0382  0.4368
 4357UDC     C547921  10.476  12.724  11.682 -0.1579  0.1472  0.5142
 4357UDC     C647922  10.429  12.864  11.710 -1.0677 -0.9959 -0.7589
 4357UDC     C747923  10.382  12.893  11.858  0.2271 -0.4131 -0.1180
 4357UDC     C847924  10.494  12.927  11.952  0.9568  0.0968  0.9348
 4357UDC     C947925  10.571  13.044  11.890 -1.0228  0.1908 -0.1498
 4357UDC    C1047926  10.723  13.057  11.873 -0.2386 -0.1462 -0.4190
 4357UDC    C1147927  10.773  13.184  11.792 -0.1265 -0.9147 -0.2235
 4358UDC     C147928  11.828   9.950  19.451 -0.3429  0.0467  0.4261
 4358UDC     C247929  11.942   9.850  19.456 -1.2377 -0.0653  0.9709
 4358UDC     C347930  11.938   9.740  19.339  0.8016  0.9988  1.2797
 4358UDC     C447931  12.009   9.627  19.416 -0.1541  0.0896 -0.5511
 4358UDC     C547932  11.914   9.539  19.495 -0.5333 -0.6784 -1.1009
 4358UDC     C647933  11.977   9.401  19.552 -0.0904 -0.8396  0.2662
 4358UDC     C747934  11.878   9.299  19.629  0.5051 -0.5998 -0.2432
 4358UDC     C847935  11.810   9.360  19.742  0.0942  0.7066 -1.1523
 4358UDC     C947936  11.790   9.244  19.851  0.3182 -0.9555  0.4418
 4358UDC    C1047937  11.912   9.191  19.923 -0.3668  0.0914  0.1946
 4358UDC    C1147938  11.858   9.110  20.047 -0.2010  0.7599 -1.1302
 4359UDC     C147939  14.017   9.764  16.327 -0.5527  1.1478 -0.2588
 4359UDC     C247940  13.956   9.900  16.338 -0.2003  0.0873  0.7305
 4359UDC     C347941  14.014  10.008  16.439 -0.6830  1.0658 -0.4723
 4359UDC     C447942  14.171  10.008  16.441 -0.9328 -1.0890 -0.9990
 4359UDC     C547943  14.214  10.132  16.501 -0.4239 -0.4976 -0.1431
 4359UDC     C647944  14.186  10.260  16.426 -0.0731  0.4905  0.0974
 4359UDC     C747945  14.298  10.318  16.345 -0.5508  1.0567 -0.1432
 4359UDC     C847946  14.345  10.263  16.209 -0.1407  0.6334 -0.3841
 4359UDC     C947947  14.213  10.224  16.136 -0.9401  0.4049  0.5212
 4359UDC    C1047948  14.237  10.131  16.014 -0.4570 -0.5228 -0.5736
 4359UDC    C1147949  14.115  10.096  15.930  0.0033  0.1744  0.0463
 4360UDC     C147950  16.911   0.181   7.794 -0.8350  0.1644 -0.9642
 4360UDC     C247951  16.822   0.283   7.710  0.9560  0.3450  0.1477
 4360UDC     C347952  16.741   0.391   7.791 -0.3657  0.4465  0.3889
 4360UDC     C447953  16.595   0.408   7.755 -0.4064 -0.9401 -0.4218
 4360UDC     C547954  16.508   0.473   7.859  0.1631  0.0373 -0.2657
 4360UDC     C647955  16.522   0.625   7.897  1.0553 -0.2096 -0.0174
 4360UDC     C747956  16.648   0.678   7.974  0.6539  0.1496 -0.5266
 4360UDC     C847957  16.643   0.822   8.019 -0.3919 -0.0774  0.0782
 4360UDC     C947958  16.693   0.918   7.911  0.1184 -0.0959  0.0852
 4360UDC    C1047959  16.590   1.030   7.855  0.0054  0.6439 -0.1986
 4360UDC    C1147960  16.464   0.953   7.811 -0.1597  0.2337 -0.1977
 4361UDC     C147961  11.012  16.358  10.412  0.7570  0.8622 -0.4056
 4361UDC     C247962  11.141  16.342  10.339 -0.5810 -1.7103 -0.6388
 4361UDC     C347963  11.169  16.479  10.261  0.1161 -0.4338 -0.2185
 4361UDC     C447964  11.268  16.585  10.325  0.1515  0.7249  0.1850
 4361UDC     C547965  11.408  16.543  10.347 -0.2729 -0.4569 -0.0423
 4361UDC     C647966  11.484  16.624  10.459  0.5201  0.4378 -0.2134
 4361UDC     C747967  11.634  16.585  10.467 -0.4854  0.8213 -0.6615
 4361UDC     C847968  11.689  16.555  10.606 -0.2929  0.0832  0.7097
 4361UDC     C947969  11.588  16.617  10.700  0.9236  1.3660  0.3788
 4361UDC    C1047970  11.596  16.573  10.848  0.0180 -0.9208  1.1107
 4361UDC    C1147971  11.535  16.672  10.946 -0.1976  1.1056  0.4009
 4362UDC     C147972  10.814   9.055  15.627 -0.0011 -0.9706  1.0054
 4362UDC     C247973  10.712   9.117  15.725 -0.2134  0.3101  1.0356
 4362UDC     C347974  10.666   9.261  15.693 -0.7146  0.1385 -0.5434
 4362UDC     C447975  10.558   9.252  15.585  0.7480 -0.0053  1.0662
 4362UDC     C547976  10.432   9.199  15.657  0.5100  0.7713  0.1974
 4362UDC     C647977  10.400   9.252  15.801  0.5072  0.3633  0.1916
 4362UDC     C747978  10.383   9.402  15.828  0.7545 -0.5847 -1.0130
 4362UDC     C847979  10.246   9.460  15.778  0.3895 -0.2304 -0.4649
 4362UDC     C947980  10.118   9.382  15.816  0.6916 -1.2756 -0.2061
 4362UDC    C1047981   9.983   9.444  15.760  0.4184 -1.0597  0.3622
 4362UDC    C1147982   9.847   9.385  15.818 -0.8440  0.5121  0.0697
 4363UDC     C147983   9.505  11.406  10.212 -0.2605  0.2900 -0.1704
 4363UDC     C247984   9.589  11.369  10.336 -0.2237  0.6328  0.4139
 4363UDC     C347985   9.541  11.404  10.473  0.3639 -0.3002 -0.2598
 4363UDC     C447986   9.598  11.545  10.507  0.2713 -0.2519 -0.9469
 4363UDC     C547987   9.577  11.616  10.649  0.1656 -0.1076  2.0154
 4363UDC     C647988   9.437  11.674  10.680 -0.0113 -1.0682 -0.3410
 4363UDC     C747989   9.438  11.823  10.663  0.0320  0.4431 -0.4433
 4363UDC     C847990   9.572  11.893  10.702 -0.3602  0.2911  0.6334
 4363UDC     C947991   9.563  12.023  10.627  0.2550  0.1781 -0.3476
 4363UDC    C1047992   9.654  12.123  10.700  1.6558 -1.3247  0.7440
 4363UDC    C1147993   9.803  12.102  10.686 -1.7185  0.2581 -1.1044
 4364UDC     C147994  17.662   8.629   0.487  0.6099 -0.2121 -0.4692
 4364UDC     C247995  17.685   8.479   0.499 -0.2662  0.3168  0.0964
 4364UDC     C347996  17.794   8.409   0.405 -0.0094 -1.1913  0.6286
 4364UDC     C447997  17.802   8.479   0.267 -0.0896  0.3235 -0.9046
 4364UDC     C547998  17.796   8.390   0.146  0.3330  0.3215  0.5444
 4364UDC     C647999  17.741   8.472   0.026  1.1103 -0.2747 -1.1178
 4364UDC     C748000  17.844   8.493  -0.074  0.9665 -1.3296  1.1454
 4364UDC     C848001  17.798   8.541  -0.216 -1.0685 -0.1982 -1.2925
 4364UDC     C948002  17.922   8.553  -0.305  0.8193 -0.0035  0.2699
 4364UDC    C1048003  17.908   8.554  -0.461 -0.5763  1.3625  0.5624
 4364UDC    C1148004  18.048   8.576  -0.521  0.5906  0.4549  0.1303
 4365UDC     C148005  10.626  10.677   4.415  0.4623  0.5986 -0.5769
 4365UDC     C248006  10.708  10.686   4.551  1.3353  0.0020  0.0685
 4365UDC     C348007  10.825  10.780   4.532  0.7974 -0.9899 -0.4751
 4365UDC     C448008  10.915  10.832   4.648 -0.1188 -0.6822 -1.5346
 4365UDC     C548009  11.003  10.936   4.577 -0.8487  0.7638  0.5801
 4365UDC     C648010  11.125  10.905   4.482  0.0623 -0.0935 -0.2125
 4365UDC     C748011  11.213  11.025   4.435  0.2212 -0.4462  0.3026
 4365UDC     C848012  11.207  11.028   4.286  0.6810 -1.0040  0.6154
 4365UDC     C948013  11.325  10.965   4.206  0.0664 -0.1071 -0.6656
 4365UDC    C1048014  11.273  10.904   4.080  0.1332  0.8521 -0.0714
 4365UDC    C1148015  11.380  10.814   4.019 -0.4441  0.6569 -0.5403
 4366UDC     C148016  12.453  11.285   4.445 -0.0109  0.8030  0.1182
 4366UDC     C248017  12.583  11.211   4.459 -0.6483  0.5584 -0.5848
 4366UDC     C348018  12.690  11.298   4.516 -0.2419  0.2754 -0.6076
 4366UDC     C448019  12.825  11.234   4.483 -1.0685  0.4115 -0.1967
 4366UDC     C548020  12.832  11.216   4.330 -0.8653  0.5116 -0.2877
 4366UDC     C648021  12.966  11.218   4.257 -0.2542  0.1817 -1.2335
 4366UDC     C748022  13.032  11.343   4.196  1.1417  0.3297  0.2915
 4366UDC     C848023  13.190  11.341   4.175  0.4364 -1.1784  0.5410
 4366UDC     C948024  13.244  11.210   4.136 -0.9678  1.7587  0.6077
 4366UDC    C1048025  13.386  11.222   4.073  0.4468 -0.1340  0.3012
 4366UDC    C1148026  13.447  11.084   4.048  0.4799 -0.4837  0.3233
 4367UDC     C148027  16.654   1.955   6.263 -0.2966 -0.2860 -0.0895
 4367UDC     C248028  16.558   2.068   6.217  0.1534  0.9290  1.7911
 4367UDC     C348029  16.417   2.037   6.273  0.8396  1.0700  1.2353
 4367UDC     C448030  16.406   2.101   6.417 -0.4654 -0.1268  0.2258
 4367UDC     C548031  16.302   2.204   6.455  1.2127  0.6398  0.2885
 4367UDC     C648032  16.163   2.146   6.504 -0.2083  0.6909  0.1560
 4367UDC     C748033  16.044   2.240   6.482  0.4690 -0.2777  0.2655
 4367UDC     C848034  16.024   2.266   6.334 -0.2389 -0.1530 -0.3397
 4367UDC     C948035  15.916   2.367   6.295 -0.3808 -0.9891  0.6965
 4367UDC    C1048036  15.876   2.366   6.145 -0.3126 -0.8029  0.8031
 4367UDC    C1148037  15.964   2.470   6.069 -0.4009  0.2662  0.1716
 4368UDC     C148038  12.772  19.503   9.409  0.3652  0.2610  1.2970
 4368UDC     C248039  12.679  19.621   9.389 -0.5754  0.9423  0.4490
 4368UDC     C348040  12.714  19.727   9.488 -1.1152 -1.2362  1.5452
 4368UDC     C448041  12.706  19.686   9.636 -0.5009 -0.5924  0.5007
 4368UDC     C548042  12.688  19.805   9.738 -1.0015  0.8075 -0.2447
 4368UDC     C648043  12.688  19.742   9.879 -0.1555 -0.4143  0.1642
 4368UDC     C748044  12.667  19.816  10.011 -0.4770  0.5772 -0.1052
 4368UDC     C848045  12.795  19.897  10.058 -0.3245 -0.6552  0.5236
 4368UDC     C948046  12.793  19.969  10.190  1.4693  0.0172 -0.4557
 4368UDC    C1048047  12.921  20.012  10.258 -0.1574 -0.6435 -0.0663
 4368UDC    C1148048  13.016  20.098  10.167 -1.2154 -0.9183 -0.1863
 4369UDC     C148049  10.996   4.676   9.944 -0.3512  0.2737  0.4182
 4369UDC     C248050  10.914   4.624   9.834 -1.1490 -0.8991  0.0722
 4369UDC     C348051  10.873   4.475   9.839 -1.6238  0.0296  0.6281
 4369UDC     C448052  10.962   4.364   9.781 -0.2227 -0.1972 -0.7253
 4369UDC     C548053  11.110   4.378   9.822  0.3131 -0.0971  0.0096
 4369UDC     C648054  11.133   4.370   9.970  0.1775  0.6305  0.3252
 4369UDC     C748055  11.277   4.371  10.027 -0.3295 -0.1467 -0.2104
 4369UDC     C848056  11.379   4.469   9.975 -0.3093  0.6485  0.9704
 4369UDC     C948057  11.513   4.482  10.044  0.2121 -0.1165 -0.7968
 4369UDC    C1048058  11.608   4.381   9.995  0.3264  0.8703  0.3626
 4369UDC    C1148059  11.641   4.375   9.846 -0.7246 -0.5652  1.2189
 4370UDC     C148060  10.357   5.112  11.197 -0.9929  0.1400  0.3564
 4370UDC     C248061  10.392   5.178  11.061 -0.9253 -1.3258  0.1559
 4370UDC     C348062  10.271   5.149  10.974 -0.9687 -0.7499  0.6936
 4370UDC     C448063  10.243   5.012  10.913 -0.3936 -1.1561 -0.9776
 4370UDC     C548064  10.134   5.022  10.810  0.6759 -0.7564  0.3474
 4370UDC     C648065  10.164   5.109  10.689  0.2387 -0.1320  0.7306
 4370UDC     C748066  10.235   5.041  10.571  0.2461  0.9565 -0.0568
 4370UDC     C848067  10.290   5.134  10.458 -0.5045  0.8404  0.5331
 4370UDC     C948068  10.197   5.233  10.390 -0.3846 -0.2763 -0.5713
 4370UDC    C1048069  10.269   5.326  10.286 -0.5188 -0.8935  0.1613
 4370UDC    C1148070  10.181   5.425  10.195  0.0382  0.0304  1.2880
 4371UDC     C148071  18.359   7.215   7.364  0.2159 -0.0954 -0.3374
 4371UDC     C248072  18.415   7.107   7.274  1.1665  0.4926  0.1282
 4371UDC     C348073  18.308   7.000   7.250 -0.1902 -0.0061  0.5121
 4371UDC     C448074  18.212   6.977   7.370 -0.1091  0.5222 -0.5999
 4371UDC     C548075  18.131   6.850   7.333 -0.5847 -0.4606  0.6591
 4371UDC     C648076  18.076   6.766   7.451 -0.5773  0.1346 -0.7267
 4371UDC     C748077  18.016   6.641   7.391 -0.0259  0.2343 -0.3053
 4371UDC     C848078  17.918   6.591   7.497  0.0888 -0.5127  0.3153
 4371UDC     C948079  17.815   6.702   7.529 -0.8017  0.1204 -1.2750
 4371UDC    C1048080  17.723   6.667   7.655 -0.3380  0.6909  0.2165
 4371UDC    C1148081  17.586   6.629   7.602 -0.1704 -0.5394 -0.7446
 4372UDC     C148082  17.519   3.812  15.479  0.2946 -0.2647  1.3075
 4372UDC     C248083  17.478   3.674  15.426  1.0268 -0.1812 -0.5720
 4372UDC     C348084  17.580   3.633  15.318  0.3525  0.4942 -1.2863
 4372UDC     C448085  17.546   3.710  15.189  0.3333  0.1582 -0.5445
 4372UDC     C548086  17.603   3.635  15.072  0.4384  0.4374  0.3186
 4372UDC     C648087  17.754   3.640  15.061  0.2429 -0.0776 -1.3595
 4372UDC     C748088  17.813   3.539  14.966  0.3885  0.7230 -0.1340
 4372UDC     C848089  17.956   3.574  14.917  0.1486  1.4352  0.5899
 4372UDC     C948090  17.995   3.728  14.918 -0.0807 -0.1389 -0.1342
 4372UDC    C1048091  18.142   3.734  14.865 -0.7763  0.0833  0.0505
 4372UDC    C1148092  18.185   3.649  14.742  0.0143 -0.0478 -0.0569
 4373UDC     C148093   1.866   0.594  10.927  1.2430  0.6847  0.2450
 4373UDC     C248094   1.780   0.620  10.808  0.2559 -0.6774 -0.8540
 4373UDC     C348095   1.866   0.676  10.697 -0.6614  0.1689  0.6668
 4373UDC     C448096   1.931   0.808  10.700  0.0024 -0.6554 -0.3875
 4373UDC     C548097   1.837   0.930  10.698  1.0681  0.0979 -0.9847
 4373UDC     C648098   1.902   1.062  10.745 -0.2345 -0.3929 -0.6633
 4373UDC     C748099   1.788   1.170  10.759  0.7978  0.6983  0.5586
 4373UDC     C848100   1.803   1.239  10.889  0.1807 -0.3076 -1.0094
 4373UDC     C948101   1.933   1.320  10.894 -0.1122 -1.1084 -0.1699
 4373UDC    C1048102   1.980   1.364  11.032  0.0378  0.9099  0.0035
 4373UDC    C1148103   2.078   1.486  11.026  0.3991 -0.7301  0.9968
 4374UDC     C148104  14.236  14.642  16.783  0.2132 -0.2170 -0.9705
 4374UDC     C248105  14.260  14.564  16.912  0.3500  0.0256  0.2947
 4374UDC     C348106  14.326  14.428  16.872  0.5440 -1.6278 -0.9138
 4374UDC     C448107  14.375  14.386  17.014  1.2950  0.7337 -0.6815
 4374UDC     C548108  14.429  14.240  17.024 -0.1654 -0.3103  0.5597
 4374UDC     C648109  14.485  14.205  17.160  0.2825  0.4838  0.1115
 4374UDC     C748110  14.378  14.172  17.260 -0.1712 -0.4671 -0.1307
 4374UDC     C848111  14.281  14.048  17.238  0.3478 -0.0520  1.2317
 4374UDC     C948112  14.142  14.045  17.304 -0.1556  0.4146 -1.0057
 4374UDC    C1048113  14.049  13.941  17.236  0.3803 -0.1611  0.5732
 4374UDC    C1148114  14.114  13.817  17.174 -0.5028 -0.2082 -0.6805
 4375UDC     C148115   9.759  11.177   4.897  0.0238 -0.5937 -0.6481
 4375UDC     C248116   9.796  11.023   4.890  0.1488 -0.2187 -0.5157
 4375UDC     C348117   9.923  11.013   4.811 -1.0158 -0.3819  0.7007
 4375UDC     C448118   9.897  11.025   4.655  0.6274  0.4530  0.2840
 4375UDC     C548119   9.776  10.953   4.599  0.5467 -0.3255  0.1559
 4375UDC     C648120   9.714  10.996   4.467 -0.4939 -0.5556  0.5535
 4375UDC     C748121   9.597  10.910   4.422 -0.4613 -0.3455 -0.2512
 4375UDC     C848122   9.505  10.965   4.313 -0.2257  0.4961 -1.0517
 4375UDC     C948123   9.557  11.029   4.190  0.4233 -0.5534  0.8096
 4375UDC    C1048124   9.483  11.154   4.126  0.1720  0.1395  0.1518
 4375UDC    C1148125   9.494  11.278   4.210 -0.6221 -0.1978 -0.9522
 4376UDC     C148126   1.563   7.044  10.014  0.2693 -0.1636  0.0613
 4376UDC     C248127   1.678   6.940  10.049 -0.3409 -0.2794 -0.3199
 4376UDC     C348128   1.814   6.987  10.111 -0.5660 -0.4066 -0.0293
 4376UDC     C448129   1.917   6.884  10.165  0.5125  0.0929 -0.0920
 4376UDC     C548130   1.911   6.879  10.323 -0.3717  0.2243 -0.3295
 4376UDC     C648131   2.033   6.796  10.375 -0.0068  0.4747  0.2904
 4376UDC     C748132   2.022   6.642  10.370  1.2122 -0.9848 -1.3686
 4376UDC     C848133   2.033   6.587  10.514 -0.5270  0.4602 -1.5823
 4376UDC     C948134   2.166   6.511  10.539  0.5560 -0.0143  1.3749
 4376UDC    C1048135   2.121   6.387  10.627  0.4342 -0.2817 -0.2398
 4376UDC    C1148136   2.093   6.422  10.775  0.2453  0.6779 -0.5860
 4377UDC     C148137  17.742  10.200  14.080 -0.1786  0.8858 -0.3548
 4377UDC     C248138  17.884  10.146  14.064  0.3757 -0.1214 -0.0164
 4377UDC     C348139  17.954  10.252  13.979  0.5071 -0.1310  0.8817
 4377UDC     C448140  17.861  10.316  13.871 -1.1065 -0.5329 -0.6001
 4377UDC     C548141  17.949  10.387  13.775 -0.0425 -0.2002  0.8839
 4377UDC     C648142  17.872  10.465  13.671 -0.4576 -0.4372 -0.1660
 4377UDC     C748143  17.782  10.572  13.735 -0.6842 -0.1857  0.5517
 4377UDC     C848144  17.643  10.562  13.661 -0.7615 -0.4115 -0.5245
 4377UDC     C948145  17.516  10.631  13.721 -0.9187  0.2943  0.7217
 4377UDC    C1048146  17.381  10.623  13.645  0.1466  0.0216 -0.1441
 4377UDC    C1148147  17.283  10.734  13.684  0.2478  0.2491  0.3210
 4378UDC     C148148  17.461  10.510  17.730 -0.7875  0.1605  0.8026
 4378UDC     C248149  17.420  10.438  17.601 -0.2013 -0.8108 -0.5015
 4378UDC     C348150  17.469  10.291  17.561 -0.3550 -0.8048  1.0447
 4378UDC     C448151  17.626  10.283  17.567  1.6650 -1.0199  0.3175
 4378UDC     C548152  17.687  10.156  17.510  0.4310  0.0342 -0.1289
 4378UDC     C648153  17.831  10.121  17.562  0.0936  0.4721  0.9814
 4378UDC     C748154  17.895  10.011  17.486 -0.7275  1.7041  0.0540
 4378UDC     C848155  17.898  10.024  17.333 -0.0095  0.1589  0.6318
 4378UDC     C948156  17.997   9.932  17.267 -1.0003  0.1894 -0.4260
 4378UDC    C1048157  18.025   9.956  17.114  0.4900 -1.0206  0.4397
 4378UDC    C1148158  18.127   9.856  17.058  0.5188 -0.3358 -0.2874
 4379UDC     C148159   1.423   0.632   5.058 -0.2464  1.0317 -0.0113
 4379UDC     C248160   1.431   0.729   5.170  0.0715 -0.1766  0.7302
 4379UDC     C348161   1.302   0.716   5.254 -0.4180 -0.0346 -0.9354
 4379UDC     C448162   1.298   0.810   5.368 -0.4360  0.0642 -0.5832
 4379UDC     C548163   1.186   0.921   5.350 -0.6671 -0.0760  0.9961
 4379UDC     C648164   1.183   1.023   5.468 -0.5298  0.6901  0.2481
 4379UDC     C748165   1.058   1.107   5.461  0.4824  0.6104 -1.7317
 4379UDC     C848166   1.036   1.216   5.353 -1.1441 -1.0772  0.2068
 4379UDC     C948167   0.901   1.284   5.369 -0.1814  0.1682 -0.2662
 4379UDC    C1048168   0.902   1.424   5.304 -0.3201 -0.6989  0.0431
 4379UDC    C1148169   0.760   1.459   5.247 -0.5274  0.4618 -1.4370
 4380UDC     C148170   4.945  15.585   1.556  0.4249 -0.1628  0.2727
 4380UDC     C248171   5.054  15.606   1.662  0.3663 -1.0431 -0.0142
 4380UDC     C348172   5.005  15.714   1.759 -0.4219 -1.1067 -0.1951
 4380UDC     C448173   4.850  15.733   1.782 -0.7552 -0.1049  0.3202
 4380UDC     C548174   4.782  15.877   1.775 -0.1802  1.3607 -0.5578
 4380UDC     C648175   4.664  15.890   1.871 -0.0564 -1.1038 -0.5333
 4380UDC     C748176   4.589  16.019   1.898  0.3699 -0.8603  0.2931
 4380UDC     C848177   4.683  16.123   1.967  0.3239 -0.9084  0.0998
 4380UDC     C948178   4.720  16.111   2.113 -0.8536 -1.4345 -0.3715
 4380UDC    C1048179   4.592  16.135   2.205 -0.8044  0.2897  1.0324
 4380UDC    C1148180   4.600  16.120   2.355  0.9373  0.5837  0.4021
 4381UDC     C148181  14.347  12.581   7.655 -0.8019 -0.3018 -0.9370
 4381UDC     C248182  14.209  12.611   7.593 -0.5816 -0.6563  0.4595
 4381UDC     C348183  14.101  12.502   7.584 -1.1562 -0.8444 -0.2964
 4381UDC     C448184  14.086  12.417   7.717  0.2367 -1.1408  0.6263
 4381UDC     C548185  13.945  12.354   7.685 -0.6771 -0.7602 -0.0924
 4381UDC     C648186  13.954  12.240   7.592  0.2838  0.2395  0.1991
 4381UDC     C748187  13.996  12.105   7.656  0.6655 -0.0874  0.1709
 4381UDC     C848188  13.941  11.979   7.586  0.0402  0.5347 -0.7247
 4381UDC     C948189  13.783  11.973   7.577 -0.6134 -0.5782 -0.1997
 4381UDC    C1048190  13.712  12.004   7.713 -0.8473  0.9264 -0.7017
 4381UDC    C1148191  13.567  11.950   7.707 -1.0328 -0.3446 -0.0410
 4382UDC     C148192   0.242   5.710  16.075 -0.1750  0.2585 -1.1858
 4382UDC     C248193   0.273   5.824  16.181  0.0219  0.4102  0.8115
 4382UDC     C348194   0.398   5.905  16.160 -0.0214 -0.0859 -0.4164
 4382UDC     C448195   0.440   5.904  16.015  1.1138  0.2747 -0.2749
 4382UDC     C548196   0.551   5.814  15.970 -0.7453 -0.1741 -0.3331
 4382UDC     C648197   0.567   5.870  15.821  1.0902  0.0278  1.2797
 4382UDC     C748198   0.693   5.951  15.813  0.4119  0.1956  0.5865
 4382UDC     C848199   0.699   6.057  15.921 -0.6339 -0.1070  0.0391
 4382UDC     C948200   0.814   6.159  15.890 -0.4608 -0.5749  0.6990
 4382UDC    C1048201   0.817   6.283  15.981  0.2638 -0.0567 -0.4801
 4382UDC    C1148202   0.945   6.362  15.977 -0.4429 -0.3837 -0.8857
 4383UDC     C148203   7.190   6.046   7.055 -0.7527 -0.8579 -0.8514
 4383UDC     C248204   7.101   6.123   7.159  0.0306  0.6773 -0.3535
 4383UDC     C348205   7.021   6.231   7.090  0.6785  0.0262 -0.6164
 4383UDC     C448206   6.878   6.255   7.142 -0.7868 -0.4637  0.0978
 4383UDC     C548207   6.787   6.337   7.059 -1.9170 -0.9144  0.6838
 4383UDC     C648208   6.640   6.371   7.094 -0.4842 -0.1675 -0.0143
 4383UDC     C748209   6.533   6.268   7.058  0.1650 -0.4754  0.0687
 4383UDC     C848210   6.560   6.176   6.941  1.5529 -1.0213  0.0799
 4383UDC     C948211   6.544   6.033   6.990 -0.7321 -0.2481 -0.1120
 4383UDC    C1048212   6.469   5.961   6.871  0.8856 -0.3276 -0.9233
 4383UDC    C1148213   6.481   5.808   6.866 -0.8721 -0.0005 -0.4938
 4384UDC     C148214   3.249  17.020  14.453  0.0409 -0.3002  0.6975
 4384UDC     C248215   3.256  17.118  14.331 -0.2163 -0.9331  0.0444
 4384UDC     C348216   3.123  17.174  14.273  0.1387 -0.4072 -1.5917
 4384UDC     C448217   3.025  17.268  14.353  0.6275  0.0764 -0.4864
 4384UDC     C548218   2.887  17.303  14.281 -0.3817 -0.8935 -0.3648
 4384UDC     C648219   2.900  17.408  14.170  0.3696 -0.6828  0.0320
 4384UDC     C748220   2.815  17.527  14.218  1.0364 -0.5015 -0.1110
 4384UDC     C848221   2.850  17.554  14.365 -0.3654  0.5452 -0.2529
 4384UDC     C948222   2.798  17.683  14.415  0.5031 -0.3370  0.1466
 4384UDC    C1048223   2.849  17.736  14.553  0.4776 -0.2770  0.1308
 4384UDC    C1148224   2.806  17.885  14.584 -0.2912  0.0293 -0.1593
 4385UDC     C148225  14.829   9.182   1.208  0.0625  0.7070 -0.3056
 4385UDC     C248226  14.872   9.297   1.120 -0.7642 -0.2472  0.0072
 4385UDC     C348227  14.818   9.289   0.974 -0.4581 -0.1725 -0.0919
 4385UDC     C448228  14.685   9.370   0.973  0.4276 -0.0565 -0.2797
 4385UDC     C548229  14.621   9.394   0.836  0.5281  1.1104  1.0946
 4385UDC     C648230  14.495   9.487   0.837  0.1010 -0.1585  0.1098
 4385UDC     C748231  14.371   9.425   0.907 -0.3741 -0.3647  1.6303
 4385UDC     C848232  14.252   9.521   0.886  0.9538  0.7379  0.0312
 4385UDC     C948233  14.119   9.478   0.946 -1.4288  0.9378 -0.2380
 4385UDC    C1048234  14.132   9.440   1.096 -0.9888 -0.0868  0.1317
 4385UDC    C1148235  13.998   9.405   1.172 -0.2312  0.0167  0.3207
 4386UDC     C148236  17.157  17.272   4.176 -0.3271  0.1686  0.5733
 4386UDC     C248237  17.106  17.182   4.284  0.1738  0.3623  0.1500
 4386UDC     C348238  17.061  17.273   4.404  0.7692 -0.2674  0.5330
 4386UDC     C448239  17.159  17.278   4.516  0.0519 -0.4103 -0.1659
 4386UDC     C548240  17.125  17.386   4.618  0.0162 -0.1846  0.5914
 4386UDC     C648241  17.234  17.495   4.598 -1.0322  1.0070 -0.3636
 4386UDC     C748242  17.369  17.423   4.588  0.3447 -0.2035 -1.1891
 4386UDC     C848243  17.417  17.428   4.731 -0.0110  0.3479 -0.6817
 4386UDC     C948244  17.542  17.337   4.760  0.4186 -0.1340 -0.1767
 4386UDC    C1048245  17.641  17.319   4.647  0.7067  0.3847  0.8353
 4386UDC    C1148246  17.724  17.194   4.673 -0.6618  0.0222 -0.0262
 4387UDC     C148247   9.607  19.529   6.872  0.2008  0.7650  0.3561
 4387UDC     C248248   9.568  19.497   7.022 -0.0314 -0.0841  0.9415
 4387UDC     C348249   9.458  19.387   7.031  0.1307 -0.1185  0.1441
 4387UDC     C448250   9.467  19.279   6.913  0.0771 -0.3413  0.2549
 4387UDC     C548251   9.360  19.172   6.934  0.3419  0.6684  0.2009
 4387UDC     C648252   9.228  19.180   6.864  0.0921  0.2328 -0.2377
 4387UDC     C748253   9.238  19.088   6.742 -0.2142 -1.4512  1.4464
 4387UDC     C848254   9.115  19.069   6.652 -0.9059 -0.5723 -0.0469
 4387UDC     C948255   9.006  18.982   6.719  0.5094 -0.2915  0.0693
 4387UDC    C1048256   8.883  18.969   6.624  0.3969  0.4004  0.1958
 4387UDC    C1148257   8.805  19.103   6.615 -0.0588  0.7670 -0.1792
 4388UDC     C148258   2.454  10.216   0.875 -0.2577  0.3957  0.0426
 4388UDC     C248259   2.509  10.181   1.015  0.7045  1.3474 -0.0426
 4388UDC     C348260   2.406  10.091   1.096 -0.2441  0.7663  0.6207
 4388UDC     C448261   2.265  10.153   1.111  0.0621  0.9814  0.8735
 4388UDC     C548262   2.156  10.063   1.172  0.2618  0.7685 -0.0740
 4388UDC     C648263   2.011  10.112   1.185 -0.4464  0.4569  0.8224
 4388UDC     C748264   1.899  10.007   1.228 -0.3450 -0.8513 -0.2447
 4388UDC     C848265   1.766  10.082   1.249 -0.5279 -0.4555  0.3637
 4388UDC     C948266   1.640   9.997   1.234 -0.6457 -0.1756  0.4050
 4388UDC    C1048267   1.571   9.989   1.100  0.4565 -0.7814 -0.9211
 4388UDC    C1148268   1.518  10.122   1.034 -0.2279  0.6330  0.5331
 4389UDC     C148269  11.460  13.099   1.215  0.7474 -0.5489 -0.1127
 4389UDC     C248270  11.414  13.070   1.367 -0.0587 -0.3361 -0.0056
 4389UDC     C348271  11.255  13.050   1.365 -0.5385  0.4313 -1.0187
 4389UDC     C448272  11.201  13.034   1.512  0.4532 -0.5534 -0.4802
 4389UDC     C548273  11.281  12.921   1.589  1.1538  0.6640 -0.3053
 4389UDC     C648274  11.213  12.911   1.727 -0.8391  0.0384  0.4528
 4389UDC     C748275  11.226  12.783   1.806 -0.2909  0.4056  0.9584
 4389UDC     C848276  11.166  12.655   1.739  0.0654  0.3125 -0.7210
 4389UDC     C948277  11.056  12.600   1.827 -0.6640 -0.5602 -0.0324
 4389UDC    C1048278  10.930  12.684   1.817  0.0105 -0.6053 -0.1803
 4389UDC    C1148279  10.813  12.640   1.910  0.7306  0.1997  0.9445
 4390UDC     C148280  10.091   1.280  16.308  0.3422 -0.3911 -0.8896
 4390UDC     C248281  10.039   1.259  16.161 -0.4832  0.1527 -0.6744
 4390UDC     C348282   9.902   1.327  16.131 -0.2807  0.2005 -0.6810
 4390UDC     C448283   9.820   1.264  16.024 -0.1358  0.4766 -0.1131
 4390UDC     C548284   9.855   1.281  15.878 -0.1110  0.0073  0.1648
 4390UDC     C648285   9.843   1.425  15.826 -0.6738 -0.0704 -0.4169
 4390UDC     C748286   9.902   1.460  15.690 -0.3684  0.4820 -0.9337
 4390UDC     C848287  10.031   1.381  15.635  0.6460 -1.2834 -0.9064
 4390UDC     C948288  10.169   1.418  15.694 -0.2182  0.3621  0.7971
 4390UDC    C1048289  10.215   1.566  15.678 -0.0448 -0.2248  0.2618
 4390UDC    C1148290  10.362   1.597  15.707 -0.1389 -0.9227  0.3829
 4391UDC     C148291  11.269   6.193   6.786  0.2411 -0.4387 -0.2674
 4391UDC     C248292  11.303   6.334   6.724 -0.2815  0.6624  0.2199
 4391UDC     C348293  11.188   6.429   6.698  0.2699 -0.4139 -0.3569
 4391UDC     C448294  11.159   6.489   6.563  0.3582 -0.3803  0.2502
 4391UDC     C548295  11.285   6.551   6.502 -0.1984 -1.4641 -1.1159
 4391UDC     C648296  11.303   6.534   6.353 -0.7438 -0.3411  0.9055
 4391UDC     C748297  11.297   6.390   6.286 -0.4494  0.0040 -0.2447
 4391UDC     C848298  11.352   6.394   6.141 -0.0633 -0.2800 -0.7470
 4391UDC     C948299  11.498   6.350   6.163  1.1100  0.2162  0.1199
 4391UDC    C1048300  11.522   6.210   6.223  0.6130 -1.0218  0.8480
 4391UDC    C1148301  11.669   6.168   6.208  0.7944  0.0022 -0.2098
 4392UDC     C148302  14.881  11.479  17.425 -0.6256  0.9200 -0.2125
 4392UDC     C248303  14.736  11.421  17.456  0.1907 -0.5631 -0.5736
 4392UDC     C348304  14.668  11.474  17.580 -0.0496  0.1328  0.0088
 4392UDC     C448305  14.635  11.627  17.593  0.4939  1.2464 -0.8430
 4392UDC     C548306  14.600  11.694  17.461  1.1915 -0.8128  0.6276
 4392UDC     C648307  14.595  11.838  17.500 -0.5388  0.4261 -0.0343
 4392UDC     C748308  14.570  11.928  17.383  1.1594  0.3764  0.1745
 4392UDC     C848309  14.677  11.904  17.275  0.2483  1.7272 -0.2597
 4392UDC     C948310  14.788  12.017  17.287  0.5677 -0.7277  0.7973
 4392UDC    C1048311  14.757  12.167  17.279 -0.9667 -0.0049  1.9078
 4392UDC    C1148312  14.735  12.248  17.408 -0.5742 -0.5156 -0.6131
 4393UDC     C148313   4.504   8.579   0.951  0.2831  0.2109  0.4220
 4393UDC     C248314   4.609   8.482   0.905  0.4794  0.3610  0.3864
 4393UDC     C348315   4.661   8.413   1.033  0.0855 -0.0990 -0.9948
 4393UDC     C448316   4.764   8.309   0.999 -1.6418  0.3804 -0.4669
 4393UDC     C548317   4.880   8.375   0.932 -0.3039 -0.0797 -0.4358
 4393UDC     C648318   5.005   8.288   0.908  1.1983  0.3462 -0.0603
 4393UDC     C748319   5.130   8.367   0.923  0.9130  0.3519  1.2702
 4393UDC     C848320   5.267   8.297   0.931 -0.0815  0.6467 -0.8198
 4393UDC     C948321   5.288   8.241   1.072 -0.9902  0.2186  0.0689
 4393UDC    C1048322   5.424   8.165   1.095  1.0280 -0.2205  0.3220
 4393UDC    C1148323   5.472   8.103   0.964  0.4429  0.0229  0.0056
 4394UDC     C148324  15.333   2.077   6.306 -0.5992 -0.7598  0.7481
 4394UDC     C248325  15.363   2.098   6.159 -1.8507  0.0000 -0.2658
 4394UDC     C348326  15.250   2.165   6.084 -0.0265  0.1854 -1.1375
 4394UDC     C448327  15.136   2.064   6.055 -1.1950  0.3109  0.6837
 4394UDC     C548328  15.206   1.939   5.995  0.0032  0.0475 -0.1406
 4394UDC     C648329  15.152   1.791   5.995  0.1733  0.1208 -1.1211
 4394UDC     C748330  15.259   1.685   5.984 -0.7430 -0.4471 -0.9923
 4394UDC     C848331  15.368   1.705   5.880 -0.6194 -0.5694  0.4511
 4394UDC     C948332  15.496   1.639   5.911  0.1681  1.0333  0.8666
 4394UDC    C1048333  15.602   1.661   5.797  0.1180 -0.1715  0.1382
 4394UDC    C1148334  15.640   1.813   5.793  0.5447  1.0848 -0.2332
 4395UDC     C148335  19.110  19.526   0.354  0.9664  0.4905 -0.3813
 4395UDC     C248336  19.045  19.402   0.416 -0.4953  0.6821  0.1838
 4395UDC     C348337  18.990  19.308   0.302 -0.1889  0.4415 -0.8192
 4395UDC     C448338  18.892  19.206   0.360  0.3008  0.4947  0.7253
 4395UDC     C548339  18.826  19.099   0.272 -0.1257 -0.2786  0.5275
 4395UDC     C648340  18.784  18.968   0.337  0.9207  0.5186 -0.1419
 4395UDC     C748341  18.884  18.909   0.435 -1.0720 -0.2856 -0.3003
 4395UDC     C848342  18.844  18.783   0.516  0.0094 -0.7006  0.8048
 4395UDC     C948343  18.941  18.724   0.612 -0.3387 -1.1037 -0.5474
 4395UDC    C1048344  18.943  18.789   0.757 -0.4553  0.0636  0.3981
 4395UDC    C1148345  18.833  18.739   0.849 -0.6489 -0.6290  0.5703
 4396UDC     C148346   7.415  11.466   7.170 -0.2092 -0.4964  0.9137
 4396UDC     C248347   7.494  11.587   7.215  0.5636 -0.0264 -0.6053
 4396UDC     C348348   7.643  11.588   7.228 -0.1457 -0.3024 -0.3405
 4396UDC     C448349   7.700  11.731   7.244  0.3658  0.2174  0.2155
 4396UDC     C548350   7.673  11.823   7.119  0.2174  0.7273 -0.1221
 4396UDC     C648351   7.707  11.968   7.148 -0.6931  0.3739 -1.0182
 4396UDC     C748352   7.632  12.051   7.041 -0.6787 -0.1369  0.1193
 4396UDC     C848353   7.606  12.196   7.062 -0.0504 -1.1918 -0.6057
 4396UDC     C948354   7.614  12.264   6.925  0.7305 -1.5017 -0.3367
 4396UDC    C1048355   7.544  12.398   6.908  0.8419  0.6436 -0.6093
 4396UDC    C1148356   7.576  12.496   7.020 -0.1346 -0.5181 -0.9611
 4397UDC     C148357   0.059   1.264  16.556  0.3435  0.4876  0.3886
 4397UDC     C248358   0.146   1.160  16.635 -0.1700  0.2978  0.8676
 4397UDC     C348359   0.079   1.020  16.628  0.6581 -0.6518  0.8594
 4397UDC     C448360   0.093   0.969  16.483 -1.1158 -0.7354 -0.8363
 4397UDC     C548361   0.078   0.822  16.451 -0.6756  0.6431  0.3033
 4397UDC     C648362   0.161   0.739  16.549  0.2006 -1.0490 -0.3013
 4397UDC     C748363   0.170   0.589  16.543 -0.0388  0.1926  0.3715
 4397UDC     C848364   0.176   0.516  16.679 -0.3164  0.0959 -0.5431
 4397UDC     C948365   0.292   0.411  16.669 -0.0113 -1.0386 -0.0678
 4397UDC    C1048366   0.324   0.346  16.797 -1.4201 -0.0750  0.0055
 4397UDC    C1148367   0.217   0.285  16.885 -0.2165  0.6520  0.2403
 4398UDC     C148368  13.459   8.951   3.632  0.7088 -0.5889 -0.5054
 4398UDC     C248369  13.469   8.907   3.485 -0.8436  0.2721  0.2635
 4398UDC     C348370  13.559   9.000   3.393  0.1577 -0.7965 -0.0846
 4398UDC     C448371  13.715   9.003   3.422 -0.7245  0.0416  1.0550
 4398UDC     C548372  13.790   9.117   3.354 -1.0897  1.7195  0.2303
 4398UDC     C648373  13.750   9.248   3.415 -0.3436 -0.2305  0.0581
 4398UDC     C748374  13.865   9.354   3.409  0.0986 -0.1140 -0.0045
 4398UDC     C848375  13.840   9.483   3.480  0.2061  0.4226  0.8672
 4398UDC     C948376  13.959   9.572   3.456 -0.0268  0.1620 -0.0333
 4398UDC    C1048377  13.948   9.710   3.526  0.5783  0.0072 -0.5470
 4398UDC    C1148378  14.053   9.816   3.491  0.6942 -0.5777  1.1766
 4399UDC     C148379   0.424  19.706  18.506 -0.7451 -0.3617  0.7654
 4399UDC     C248380   0.474  19.825  18.428  0.7068 -0.0996  0.5994
 4399UDC     C348381   0.607  19.833  18.349  1.5848  0.5274 -0.8531
 4399UDC     C448382   0.664  19.689  18.343 -1.1774 -0.0112 -0.2470
 4399UDC     C548383   0.776  19.672  18.240 -0.0800 -0.1550 -0.9498
 4399UDC     C648384   0.807  19.523  18.247 -1.0923  0.0976  0.4565
 4399UDC     C748385   0.915  19.483  18.142 -0.8025  1.3613  0.8038
 4399UDC     C848386   0.874  19.472  17.998  0.1562  0.7845  1.5788
 4399UDC     C948387   1.002  19.448  17.904 -0.1529  0.0362 -0.9929
 4399UDC    C1048388   0.995  19.497  17.755 -0.1819 -0.3729  0.2820
 4399UDC    C1148389   1.078  19.404  17.665  0.0647  0.1082  0.1089
 4400UDC     C148390   4.463  16.365   6.956  1.0896  0.0687 -0.5845
 4400UDC     C248391   4.516  16.444   7.082  0.5072  0.4977 -0.0285
 4400UDC     C348392   4.435  16.563   7.137  0.3956  0.9415  0.4122
 4400UDC     C448393   4.476  16.562   7.285 -0.1773  1.0184  0.3514
 4400UDC     C548394   4.423  16.654   7.392 -0.2312 -0.4436 -0.4504
 4400UDC     C648395   4.334  16.586   7.499  0.3874  0.9791 -0.1064
 4400UDC     C748396   4.272  16.705   7.579 -0.6223  0.6324 -0.4395
 4400UDC     C848397   4.170  16.675   7.700  0.6020  0.3461  0.1072
 4400UDC     C948398   4.155  16.765   7.830  0.6145  0.9024  0.3534
 4400UDC    C1048399   4.106  16.683   7.947  0.1321 -0.9001 -0.2819
 4400UDC    C1148400   4.065  16.753   8.082 -0.3046 -0.5353 -0.5915
 4401UDC     C148401  10.710   8.049   8.769  0.2998 -0.2803  0.4906
 4401UDC     C248402  10.674   8.056   8.620 -0.1794  0.8420 -0.3182
 4401UDC     C348403  10.798   8.073   8.537 -0.0715  1.5365 -0.5802
 4401UDC     C448404  10.916   8.009   8.605 -1.0448 -0.6867 -0.1205
 4401UDC     C548405  10.955   7.864   8.547  0.6294 -0.7044  0.2868
 4401UDC     C648406  11.010   7.863   8.403 -1.0210  0.3188  0.1720
 4401UDC     C748407  11.114   7.965   8.371  0.2950 -1.1267  0.8616
 4401UDC     C848408  11.240   7.964   8.457 -0.5783  0.0809  1.3363
 4401UDC     C948409  11.333   7.837   8.430  0.0543 -1.5959  0.2691
 4401UDC    C1048410  11.447   7.809   8.530 -0.8009  0.3970 -0.3863
 4401UDC    C1148411  11.562   7.908   8.517 -0.6541  0.3427  0.7580
 4402UDC     C148412  14.118   0.769   3.976  0.9467 -0.7834  0.2488
 4402UDC     C248413  14.075   0.909   3.936 -0.3962  0.0012 -0.6193
 4402UDC     C348414  14.092   0.954   3.789 -0.7594 -0.0324  0.7908
 4402UDC     C448415  14.012   0.865   3.694 -0.3736  0.4601  0.2203
 4402UDC     C548416  13.877   0.929   3.659  0.1003 -0.1822 -0.4292
 4402UDC     C648417  13.886   1.070   3.596  0.2479 -0.5986 -0.2663
 4402UDC     C748418  13.760   1.162   3.598  0.5065  0.1089 -0.4149
 4402UDC     C848419  13.643   1.079   3.550  1.2689  0.2101  0.8315
 4402UDC     C948420  13.519   1.174   3.571  0.4797  0.4771 -0.5704
 4402UDC    C1048421  13.382   1.106   3.575  0.4729 -0.0775 -0.3660
 4402UDC    C1148422  13.364   0.999   3.688 -0.5533  0.3605  0.0536
 4403UDC     C148423   1.473  17.982  17.787 -0.6931 -1.2394  0.3360
 4403UDC     C248424   1.548  18.032  17.656 -0.4130  1.1312 -0.4292
 4403UDC     C348425   1.650  17.935  17.585  0.4874 -1.0367 -0.5466
 4403UDC     C448426   1.755  17.870  17.677  1.0988  0.2595 -0.2719
 4403UDC     C548427   1.812  17.759  17.592  0.2639  0.3248  0.2646
 4403UDC     C648428   1.938  17.690  17.645 -1.3899  0.4721 -0.5258
 4403UDC     C748429   2.064  17.680  17.550 -0.5562  0.3439 -0.0194
 4403UDC     C848430   2.173  17.587  17.607  1.0105 -0.7214 -0.3828
 4403UDC     C948431   2.301  17.626  17.542 -0.0843 -0.3919  1.0696
 4403UDC    C1048432   2.314  17.576  17.396 -0.0013 -0.6375  0.1736
 4403UDC    C1148433   2.457  17.609  17.346 -0.5325  0.1570  0.1585
 4404UDC     C148434   5.772   9.110  11.414  0.4264 -0.9421 -0.2459
 4404UDC     C248435   5.673   9.104  11.536 -0.5796 -0.8079  0.4687
 4404UDC     C348436   5.597   8.968  11.565  0.5975 -0.1157  0.7009
 4404UDC     C448437   5.660   8.858  11.474 -0.1608 -0.1685  0.8476
 4404UDC     C548438   5.575   8.737  11.436 -0.5142 -0.0845 -0.1424
 4404UDC     C648439   5.565   8.644  11.564  0.2985  0.9419  0.6603
 4404UDC     C748440   5.472   8.517  11.539  0.6283 -0.8373 -0.2247
 4404UDC     C848441   5.332   8.540  11.599  0.3271  0.1307 -0.3792
 4404UDC     C948442   5.245   8.423  11.565  1.3962 -0.5895  0.0125
 4404UDC    C1048443   5.237   8.301  11.657  0.7401  0.1594  0.3102
 4404UDC    C1148444   5.197   8.343  11.790  0.5347 -0.5849  0.1127
 4405UDC     C148445   6.509  17.602   8.615  0.4283 -1.1455 -0.0069
 4405UDC     C248446   6.483  17.672   8.476 -0.9413 -1.1976  0.6022
 4405UDC     C348447   6.541  17.817   8.468  0.0193 -0.3792 -0.4934
 4405UDC     C448448   6.691  17.811   8.491 -0.2336  0.7477 -1.5170
 4405UDC     C548449   6.764  17.947   8.486 -0.0883  0.0334  0.3623
 4405UDC     C648450   6.695  18.046   8.393  0.5462 -1.1378 -1.2104
 4405UDC     C748451   6.766  18.165   8.331 -1.4143 -0.0204  0.4673
 4405UDC     C848452   6.906  18.108   8.294 -0.9309 -1.2610 -0.2588
 4405UDC     C948453   6.994  18.226   8.250  0.5450  0.4503 -0.4406
 4405UDC    C1048454   7.135  18.174   8.209 -0.3153  0.5250 -1.1391
 4405UDC    C1148455   7.233  18.279   8.158 -1.2610  0.3161 -0.0429
 4406UDC     C148456  14.282  18.364   3.970 -0.4020  0.3005  0.0875
 4406UDC     C248457  14.397  18.276   3.933  0.7038 -0.0450  0.2078
 4406UDC     C348458  14.501  18.284   4.036  0.8869 -0.1508  0.2211
 4406UDC     C448459  14.552  18.145   4.027 -0.4437  0.0926  0.2491
 4406UDC     C548460  14.685  18.110   4.099  0.3643 -0.0974 -0.5420
 4406UDC     C648461  14.732  17.966   4.124  0.2791 -0.2821 -0.1413
 4406UDC     C748462  14.841  17.957   4.238  0.7396 -0.6629 -0.9689
 4406UDC     C848463  14.779  17.949   4.381  0.8257  0.3292 -0.1977
 4406UDC     C948464  14.745  18.094   4.430 -0.2485  0.1601  0.2045
 4406UDC    C1048465  14.860  18.149   4.502 -0.6103 -0.2301  0.7787
 4406UDC    C1148466  14.898  18.073   4.625  0.2216  0.0963  0.1339
 4407UDC     C148467   7.836  19.292  15.857  0.2598  0.3303  0.5811
 4407UDC     C248468   7.849  19.435  15.929 -0.2233  0.9102  0.2934
 4407UDC     C348469   7.891  19.542  15.820 -0.6452 -0.5833  0.3542
 4407UDC     C448470   8.040  19.538  15.788  0.0511  0.8548 -1.1226
 4407UDC     C548471   8.108  19.661  15.736 -0.4602 -1.1528 -0.8388
 4407UDC     C648472   8.258  19.648  15.769  1.4458 -1.6181 -1.3124
 4407UDC     C748473   8.345  19.768  15.723  0.1295 -0.0162 -1.0945
 4407UDC     C848474   8.497  19.750  15.723 -0.0145 -0.5613  1.5047
 4407UDC     C948475   8.549  19.715  15.865  0.3626 -0.0771 -0.1502
 4407UDC    C1048476   8.695  19.755  15.881  0.9233  0.8550 -0.6921
 4407UDC    C1148477   8.723  19.893  15.948 -0.7207  0.4036  0.2226
 4408UDC     C148478   1.972  10.368   2.734  0.9185  1.3517 -0.7033
 4408UDC     C248479   1.850  10.279   2.686 -0.8823  0.1353 -0.4337
 4408UDC     C348480   1.711  10.332   2.727 -0.8674 -0.0569  0.9302
 4408UDC     C448481   1.696  10.341   2.876  0.2180 -0.5621  1.5303
 4408UDC     C548482   1.592  10.436   2.939 -0.5642  0.5367 -0.3286
 4408UDC     C648483   1.633  10.458   3.087 -0.4663 -0.6710 -1.2676
 4408UDC     C748484   1.652  10.324   3.157 -0.3631  0.1657  0.3075
 4408UDC     C848485   1.532  10.233   3.186  0.1866  1.4998 -0.0296
 4408UDC     C948486   1.580  10.115   3.273  0.6564  0.4970 -0.0360
 4408UDC    C1048487   1.503   9.985   3.251 -0.9037 -0.2944 -0.5655
 4408UDC    C1148488   1.368  10.033   3.310  0.2213  0.5501 -1.0158
 4409UDC     C148489   9.372   6.635  11.720 -0.2538 -0.4273  0.3458
 4409UDC     C248490   9.474   6.746  11.711 -0.3383  0.0519  0.2890
 4409UDC     C348491   9.422   6.883  11.740  0.8308  0.1566  0.1669
 4409UDC     C448492   9.506   6.992  11.677  0.3872  0.1138 -0.7925
 4409UDC     C548493   9.502   7.131  11.728  0.7196 -0.4251  0.5640
 4409UDC     C648494   9.625   7.214  11.685 -0.2513 -0.0277  0.3749
 4409UDC     C748495   9.730   7.169  11.584  0.0612  0.6661 -0.0223
 4409UDC     C848496   9.849   7.258  11.608  0.4089  0.4772 -0.0853
 4409UDC     C948497   9.991   7.229  11.534  0.0442 -0.0263  0.9465
 4409UDC    C1048498  10.079   7.340  11.477 -1.0364 -0.6853 -0.3687
 4409UDC    C1148499  10.209   7.279  11.430  0.4653 -0.2134 -0.2959
 4410UDC     C148500   6.084   4.314   7.941  0.1913 -0.6906 -0.4323
 4410UDC     C248501   6.227   4.356   7.988  0.9021 -0.2102  0.2756
 4410UDC     C348502   6.279   4.263   8.112  0.1753  0.0250  0.1543
 4410UDC     C448503   6.369   4.347   8.200 -0.6158  0.1994 -0.1110
 4410UDC     C548504   6.416   4.264   8.323  0.3507 -0.3611 -0.2056
 4410UDC     C648505   6.487   4.133   8.313 -1.1902  0.2331 -0.5700
 4410UDC     C748506   6.526   4.082   8.455 -0.8094 -0.2880 -0.3569
 4410UDC     C848507   6.622   3.962   8.446  0.1967  1.3859  0.0384
 4410UDC     C948508   6.555   3.825   8.414  0.7579  0.2831  0.2385
 4410UDC    C1048509   6.646   3.706   8.398 -0.2294  0.4077 -1.2761
 4410UDC    C1148510   6.589   3.573   8.340 -0.2881 -0.6085 -0.3236
 4411UDC     C148511  16.194  10.613   5.124 -0.6873  0.5063 -0.4407
 4411UDC     C248512  16.052  10.645   5.083  0.4916 -0.2226 -1.0029
 4411UDC     C348513  15.968  10.727   5.177  0.3328 -0.1936 -0.2901
 4411UDC     C448514  16.068  10.801   5.254 -0.8162 -1.0379 -1.1973
 4411UDC     C548515  16.023  10.944   5.304  0.6575 -0.3428  0.7508
 4411UDC     C648516  16.135  11.015   5.377  0.6742  0.0431 -0.1159
 4411UDC     C748517  16.091  11.155   5.398 -0.2403 -0.7355  0.1096
 4411UDC     C848518  16.203  11.266   5.395 -0.0634  0.6829 -0.2466
 4411UDC     C948519  16.315  11.251   5.506 -0.4250 -1.2809 -0.5949
 4411UDC    C1048520  16.404  11.377   5.499 -0.4980 -0.5199 -1.2478
 4411UDC    C1148521  16.544  11.379   5.566  0.9732 -0.7073  0.1512
 4412UDC     C148522  11.225  12.857   9.232  0.3234 -0.8554  0.6998
 4412UDC     C248523  11.291  12.849   9.090 -0.4270 -0.3467  1.2391
 4412UDC     C348524  11.368  12.717   9.058  1.1348  0.1628  0.6336
 4412UDC     C448525  11.423  12.704   8.916  1.1598 -1.2143  0.0694
 4412UDC     C548526  11.574  12.751   8.914  0.8058 -0.5581  0.4375
 4412UDC     C648527  11.657  12.641   8.843 -0.0712  0.9141 -0.9883
 4412UDC     C748528  11.585  12.617   8.714 -0.2536 -0.5044  0.5759
 4412UDC     C848529  11.664  12.534   8.613  0.2722  1.2640  0.2454
 4412UDC     C948530  11.656  12.383   8.656 -0.0770  0.1064  0.2566
 4412UDC    C1048531  11.755  12.293   8.571 -1.4151 -0.6810  0.0293
 4412UDC    C1148532  11.794  12.157   8.622  0.2893  0.5785 -0.5703
 4413UDC     C148533  16.069  10.955   1.264 -0.1274 -0.5984 -1.6849
 4413UDC     C248534  16.162  10.842   1.311  0.1039  0.0139 -1.5471
 4413UDC     C348535  16.084  10.786   1.429  0.7207  0.5321  0.3650
 4413UDC     C448536  16.122  10.636   1.451  0.2682  0.2077  0.2457
 4413UDC     C548537  16.076  10.553   1.570 -0.3078  0.2499 -0.7603
 4413UDC     C648538  15.933  10.491   1.574  0.0096 -0.1097  0.6612
 4413UDC     C748539  15.913  10.376   1.672  0.7724 -0.3800  1.9186
 4413UDC     C848540  15.997  10.256   1.631  0.1663  1.3467 -0.7613
 4413UDC     C948541  16.014  10.146   1.745 -0.5498 -0.6226  0.8158
 4413UDC    C1048542  16.142  10.058   1.737  0.2355  0.4364 -0.0828
 4413UDC    C1148543  16.164  10.000   1.594  0.2424 -0.9780 -0.1154
 4414UDC     C148544   9.329  11.394  19.819  0.0934  0.3767 -1.1318
 4414UDC     C248545   9.432  11.299  19.753  0.5209 -0.3813 -0.4834
 4414UDC     C348546   9.436  11.274  19.594 -0.2361  0.3499  0.7695
 4414UDC     C448547   9.578  11.253  19.530 -0.1229 -0.1450  1.6366
 4414UDC     C548548   9.565  11.230  19.381  0.9877 -0.7161 -1.1600
 4414UDC     C648549   9.700  11.195  19.316 -0.2382  0.9612  1.4146
 4414UDC     C748550   9.702  11.203  19.165 -0.7658 -0.8104  0.6027
 4414UDC     C848551   9.835  11.166  19.096 -0.6128 -0.3398 -1.0314
 4414UDC     C948552   9.857  11.016  19.092  0.1960 -0.4488 -1.1301
 4414UDC    C1048553   9.986  10.953  19.027 -0.5649  0.4408  0.6385
 4414UDC    C1148554   9.997  10.805  19.063 -0.8328 -0.0671  0.4580
 4415UDC     C148555  17.402   1.898   8.289 -0.1895 -1.2120 -0.3829
 4415UDC     C248556  17.301   1.992   8.224  0.4411  0.3350  0.2271
 4415UDC     C348557  17.278   2.130   8.292 -0.8407  0.9647  0.3918
 4415UDC     C448558  17.166   2.211   8.227 -0.7109  0.8551 -0.6715
 4415UDC     C548559  17.145   2.344   8.287  0.3259 -0.2295  1.1474
 4415UDC     C648560  17.038   2.430   8.227  0.8352 -0.2137 -0.2855
 4415UDC     C748561  17.002   2.550   8.317 -0.2919 -0.1762  0.5820
 4415UDC     C848562  16.856   2.587   8.287  0.1041  0.1700  0.2298
 4415UDC     C948563  16.796   2.706   8.374 -0.2564  1.4896  0.3063
 4415UDC    C1048564  16.662   2.764   8.318  0.6522  0.3136  0.5123
 4415UDC    C1148565  16.528   2.698   8.366 -1.3095  0.0294 -0.5607
 4416UDC     C148566   8.556   9.658   1.922  0.3631 -0.8123 -0.1964
 4416UDC     C248567   8.478   9.567   1.818 -0.3538  1.2112  0.3494
 4416UDC     C348568   8.453   9.421   1.869 -0.1868 -0.5344  0.0683
 4416UDC     C448569   8.387   9.323   1.774 -0.4043  0.5621 -0.8415
 4416UDC     C548570   8.379   9.198   1.863 -0.2039 -0.5229 -0.6939
 4416UDC     C648571   8.339   9.050   1.823  0.0617 -0.4732  0.4833
 4416UDC     C748572   8.350   8.953   1.936  0.0653 -0.1144  0.4955
 4416UDC     C848573   8.226   8.938   2.026 -0.3362  0.3814  0.8359
 4416UDC     C948574   8.273   8.842   2.136  0.4420 -0.0924  0.9081
 4416UDC    C1048575   8.160   8.832   2.240 -0.0256 -1.1892  1.0171
 4416UDC    C1148576   8.029   8.792   2.172 -0.1829  0.5863 -0.2757
 4417UDC     C148577  16.163  13.173  12.302 -0.7209  0.5938 -0.6556
 4417UDC     C248578  16.177  13.095  12.430 -0.1506 -0.2046 -0.0502
 4417UDC     C348579  16.306  13.163  12.500  0.8469  0.5323 -0.4966
 4417UDC     C448580  16.365  13.081  12.620 -0.4048  0.0063 -0.0571
 4417UDC     C548581  16.515  13.082  12.646 -0.6381  0.8395 -0.6348
 4417UDC     C648582  16.583  12.939  12.634  0.1523 -0.0936  0.2444
 4417UDC     C748583  16.562  12.881  12.495 -0.6983  0.1278  0.0567
 4417UDC     C848584  16.573  12.732  12.487  0.3615  0.5840  0.9889
 4417UDC     C948585  16.715  12.666  12.482  0.1604  0.0494  1.5822
 4417UDC    C1048586  16.711  12.512  12.493  0.4135  0.2759  0.0298
 4417UDC    C1148587  16.844  12.448  12.528 -1.0410 -0.1196  0.0858
 4418UDC     C148588   3.277   1.530   6.815 -0.9866 -0.1396 -0.5569
 4418UDC     C248589   3.170   1.619   6.887  0.0489  1.0203 -0.1426
 4418UDC     C348590   3.042   1.545   6.926 -0.4232  0.2109 -0.8624
 4418UDC     C448591   2.962   1.604   7.040  0.2870 -0.9081  0.3032
 4418UDC     C548592   2.834   1.523   7.072  0.9343 -0.1108  0.4427
 4418UDC     C648593   2.860   1.366   7.075 -0.1607 -0.7154 -0.2369
 4418UDC     C748594   2.741   1.278   7.105 -0.5985 -0.8963  0.6813
 4418UDC     C848595   2.772   1.130   7.114  0.4707 -0.0228  0.2601
 4418UDC     C948596   2.650   1.056   7.162  0.6203 -0.4995  0.5310
 4418UDC    C1048597   2.520   1.108   7.093 -0.6951 -0.7353  1.0072
 4418UDC    C1148598   2.395   1.038   7.137  0.5998  1.2799  0.1511
 4419UDC     C148599   0.680   0.035  12.624  0.0376  0.9819 -0.8248
 4419UDC     C248600   0.724  -0.100  12.581  0.3571  0.6745  1.6720
 4419UDC     C348601   0.814  -0.182  12.666 -0.6310 -1.0358 -0.2882
 4419UDC     C448602   0.940  -0.106  12.719  0.0719 -0.1978  0.8307
 4419UDC     C548603   1.021  -0.182  12.824 -0.4784 -0.3229  0.0307
 4419UDC     C648604   1.127  -0.114  12.910  0.3833 -1.5367  0.0243
 4419UDC     C748605   1.217  -0.206  12.987  0.7944  0.5281  1.2881
 4419UDC     C848606   1.287  -0.134  13.107  0.6255 -0.5806 -0.3907
 4419UDC     C948607   1.319  -0.225  13.223 -0.3205  0.2341 -0.7215
 4419UDC    C1048608   1.360  -0.149  13.346  1.1797 -0.1986 -0.6476
 4419UDC    C1148609   1.395   0.005  13.315  0.4391 -0.1342 -0.2481
 4420UDC     C148610   3.040  10.488  13.087  0.1020 -0.1579 -0.3994
 4420UDC     C248611   3.040  10.619  13.016  0.4280  0.0742 -0.0149
 4420UDC     C348612   2.922  10.638  12.915  0.3444 -0.4427 -0.4095
 4420UDC     C448613   2.877  10.781  12.862 -0.2492  1.1258 -0.1279
 4420UDC     C548614   2.759  10.788  12.767  0.6130 -0.8891 -0.0882
 4420UDC     C648615   2.804  10.796  12.624 -0.9811  0.4952  0.8070
 4420UDC     C748616   2.895  10.922  12.595  1.6282 -0.0287 -0.6872
 4420UDC     C848617   2.990  10.874  12.488  0.3691 -0.0449 -0.1483
 4420UDC     C948618   3.080  10.978  12.431  0.1547  0.2608 -0.0906
 4420UDC    C1048619   3.227  10.957  12.474  0.0518  0.8773 -0.3949
 4420UDC    C1148620   3.262  10.803  12.497 -0.0307  0.1726  1.0141
 4421UDC     C148621  12.778  19.288  10.513  0.1826  0.7169 -0.4675
 4421UDC     C248622  12.761  19.293  10.365  0.1025 -0.0153  0.7294
 4421UDC     C348623  12.811  19.182  10.272 -0.0475 -0.4009 -0.3777
 4421UDC     C448624  12.732  19.054  10.286  1.3586 -0.8564  0.4978
 4421UDC     C548625  12.819  18.943  10.346 -0.5190 -0.4195 -0.2313
 4421UDC     C648626  12.730  18.846  10.422  0.4597  0.9979  0.7085
 4421UDC     C748627  12.808  18.756  10.520  0.6249 -0.5709  0.7534
 4421UDC     C848628  12.713  18.646  10.558 -0.4201  0.2209  0.4829
 4421UDC     C948629  12.771  18.515  10.616  0.5630 -0.1024 -0.2790
 4421UDC    C1048630  12.851  18.549  10.750  1.1368  0.5038 -0.1469
 4421UDC    C1148631  12.851  18.426  10.849 -0.2501  0.1925  0.5269
 4422UDC     C148632  11.345  14.140   1.016 -0.6181  0.7221  1.0956
 4422UDC     C248633  11.399  14.278   1.033 -0.3170  0.9138 -0.2074
 4422UDC     C348634  11.538  14.320   0.973 -0.0510 -0.1880 -0.0490
 4422UDC     C448635  11.540  14.325   0.816 -0.1230  0.6090 -0.1411
 4422UDC     C548636  11.541  14.469   0.759  0.1938  1.7092  0.1059
 4422UDC     C648637  11.423  14.480   0.664  0.0862 -0.2489  0.0009
 4422UDC     C748638  11.451  14.624   0.608 -1.1345 -0.8556 -0.6070
 4422UDC     C848639  11.346  14.700   0.525 -0.4262  0.5165 -0.1505
 4422UDC     C948640  11.406  14.837   0.484  0.4972  0.9469  0.7930
 4422UDC    C1048641  11.482  14.911   0.588  0.5431 -0.3424 -1.3800
 4422UDC    C1148642  11.525  15.049   0.539 -0.1045 -0.1238 -0.1045
 4423UDC     C148643  15.660   0.251  10.354  0.1965 -0.3770 -0.3243
 4423UDC     C248644  15.644   0.201  10.499 -0.7479 -0.9793 -1.2097
 4423UDC     C348645  15.758   0.237  10.597  0.1100 -0.6462  0.4004
 4423UDC     C448646  15.728   0.195  10.747 -0.4720 -0.9429  0.9726
 4423UDC     C548647  15.660   0.058  10.757 -0.0481 -1.2380 -0.4734
 4423UDC     C648648  15.618   0.021  10.906  0.0600  0.6494  0.1759
 4423UDC     C748649  15.599  -0.136  10.901  0.1046 -0.0974 -0.2976
 4423UDC     C848650  15.723  -0.217  10.877 -0.9983  1.2565  0.6429
 4423UDC     C948651  15.691  -0.364  10.871 -0.2544  0.4068 -1.5463
 4423UDC    C1048652  15.799  -0.444  10.799 -0.0459 -0.8946 -0.1510
 4423UDC    C1148653  15.927  -0.420  10.883  0.2647 -0.8998 -1.2210
 4424UDC     C148654   7.865  12.073   5.149  0.1985  0.5801  0.1219
 4424UDC     C248655   7.846  12.033   5.293  0.1175  0.5707 -0.4731
 4424UDC     C348656   7.925  11.913   5.339 -0.2882 -0.2798  0.3209
 4424UDC     C448657   7.823  11.832   5.413 -0.2024  0.0055  0.8486
 4424UDC     C548658   7.858  11.695   5.475 -0.2253 -0.4623 -0.7624
 4424UDC     C648659   7.748  11.601   5.516  0.7847  0.5041 -0.0062
 4424UDC     C748660   7.801  11.478   5.602 -0.6038 -0.2550  0.4278
 4424UDC     C848661   7.686  11.379   5.635  0.4513  0.0843 -0.5741
 4424UDC     C948662   7.626  11.335   5.496 -0.5955 -0.3245 -0.0896
 4424UDC    C1048663   7.737  11.249   5.419  0.0871  0.8260 -0.1020
 4424UDC    C1148664   7.743  11.101   5.469 -0.6129 -0.6778 -0.5127
 4425UDC     C148665  10.785   9.810  13.121 -0.6500 -1.2514  0.0219
 4425UDC     C248666  10.682   9.803  13.242  0.3114  0.3393  0.7458
 4425UDC     C348667  10.569   9.916  13.228 -0.8009 -0.3342 -0.3841
 4425UDC     C448668  10.459   9.887  13.324  0.1207 -0.0823 -0.0529
 4425UDC     C548669  10.493   9.912  13.474  0.1551 -0.0652  0.3199
 4425UDC     C648670  10.370   9.889  13.563 -0.3170  0.6741 -0.3709
 4425UDC     C748671  10.312   9.752  13.544 -0.0145  1.0172  0.4693
 4425UDC     C848672  10.210   9.744  13.658  0.3476 -0.7935 -0.9239
 4425UDC     C948673  10.178   9.599  13.680 -0.1207 -0.4457 -0.9685
 4425UDC    C1048674  10.059   9.566  13.768 -0.2103 -0.8612  0.2318
 4425UDC    C1148675  10.040   9.414  13.775  0.0759  0.1246 -0.5762
 4426UDC     C148676   4.445  10.046  15.040  1.0981  0.2806  0.5140
 4426UDC     C248677   4.555  10.142  15.047  0.2666 -0.4560 -0.6694
 4426UDC     C348678   4.688  10.070  15.060  1.2250 -0.5036  0.3210
 4426UDC     C448679   4.822  10.139  15.072  0.4740  0.3166  0.2785
 4426UDC     C548680   4.871  10.183  14.923  0.2302 -0.8229 -1.0400
 4426UDC     C648681   5.002  10.255  14.959 -0.4587  0.0732 -0.1474
 4426UDC     C748682   4.972  10.374  15.059  1.5069  0.3019  1.1471
 4426UDC     C848683   5.066  10.490  15.066 -0.3986  0.2533 -0.8814
 4426UDC     C948684   5.030  10.601  15.169  0.1776  0.9997 -0.2171
 4426UDC    C1048685   5.054  10.743  15.131 -1.5289 -0.2135  1.0303
 4426UDC    C1148686   5.203  10.787  15.161 -0.4681 -0.0591  0.5624
 4427UDC     C148687  16.258   3.942   1.899 -0.1028 -0.6141 -0.5012
 4427UDC     C248688  16.136   3.987   1.813  0.0520 -0.7089  0.2641
 4427UDC     C348689  15.998   3.955   1.880  1.4445 -0.4828 -0.6748
 4427UDC     C448690  15.896   3.975   1.764 -0.4452 -0.6402 -0.3430
 4427UDC     C548691  15.765   3.921   1.799 -0.2272  0.3879  1.0122
 4427UDC     C648692  15.686   3.914   1.669 -0.2862 -0.6756 -0.0727
 4427UDC     C748693  15.544   3.905   1.726 -0.2572 -0.1030 -0.1005
 4427UDC     C848694  15.486   4.042   1.767 -1.5376 -0.2237  0.4415
 4427UDC     C948695  15.360   4.047   1.855 -0.3239 -0.1978  0.2954
 4427UDC    C1048696  15.385   3.966   1.978 -1.0957 -0.0883 -0.9085
 4427UDC    C1148697  15.276   3.958   2.083 -0.0742  0.3414  0.1208
 4428UDC     C148698  19.562  12.212  19.177 -0.5128 -0.2755 -0.7367
 4428UDC     C248699  19.658  12.316  19.242  0.3411  1.1194  0.5293
 4428UDC     C348700  19.685  12.281  19.392  0.2760  0.9634  0.2471
 4428UDC     C448701  19.764  12.388  19.460 -0.2367  0.2617 -0.2683
 4428UDC     C548702  19.671  12.506  19.503  0.0177  0.4301 -0.7885
 4428UDC     C648703  19.588  12.462  19.623  0.3329 -0.2527  1.0517
 4428UDC     C748704  19.682  12.430  19.738 -0.0810  0.1610  0.5652
 4428UDC     C848705  19.680  12.561  19.820 -0.3676 -0.3810  0.0473
 4428UDC     C948706  19.783  12.555  19.936  0.2294 -0.6438  0.4422
 4428UDC    C1048707  19.777  12.685  20.021 -0.5465 -0.0731  0.6916
 4428UDC    C1148708  19.917  12.735  20.069 -0.6047  0.1720  1.7139
 4429UDC     C148709  16.483   5.883  12.025  0.1074  0.8448  0.8446
 4429UDC     C248710  16.633   5.881  12.078 -0.1675 -0.0845 -1.3416
 4429UDC     C348711  16.681   6.003  12.160 -0.7795 -0.5522  0.4613
 4429UDC     C448712  16.823   6.036  12.146  0.7815  0.6993  0.1027
 4429UDC     C548713  16.867   6.165  12.215 -0.3012  0.1315 -0.5454
 4429UDC     C648714  16.983   6.229  12.133  0.5584 -0.4270 -0.2322
 4429UDC     C748715  17.060   6.321  12.229 -0.4903 -0.7277 -1.0421
 4429UDC     C848716  17.203   6.347  12.188 -0.3529  0.4601 -0.3335
 4429UDC     C948717  17.280   6.464  12.252 -0.7382  0.4517  0.1889
 4429UDC    C1048718  17.339   6.447  12.394 -0.6577  1.2495 -0.2088
 4429UDC    C1148719  17.473   6.515  12.400 -1.2507 -1.0364  0.0395
 4430UDC     C148720  10.237   7.858   8.895 -0.0355  0.8720 -1.0378
 4430UDC     C248721  10.189   7.861   8.757  0.0021  1.1150  0.3584
 4430UDC     C348722  10.147   7.994   8.690 -1.0836  1.1697 -0.6393
 4430UDC     C448723  10.057   7.987   8.571 -0.4883 -0.3552  1.2954
 4430UDC     C548724   9.909   7.992   8.604  0.9435  0.4644 -0.1805
 4430UDC     C648725   9.862   8.127   8.649  0.3780  0.0673 -0.1850
 4430UDC     C748726   9.720   8.149   8.696  1.0573  1.2576 -0.1374
 4430UDC     C848727   9.678   8.049   8.807 -0.0204  0.3022 -0.8495
 4430UDC     C948728   9.538   8.006   8.822  0.6258  0.3768 -0.0613
 4430UDC    C1048729   9.433   8.092   8.900  0.0254 -0.3614 -0.8035
 4430UDC    C1148730   9.300   8.131   8.826  0.0857  0.3398  0.1671
 4431UDC     C148731   5.656  19.685  17.487  0.4505 -0.6510  0.7760
 4431UDC     C248732   5.764  19.776  17.542 -0.7904 -0.3854  0.6768
 4431UDC     C348733   5.789  19.781  17.694 -1.5766  0.2574 -0.6819
 4431UDC     C448734   5.897  19.888  17.717  0.0450 -0.3025  0.3855
 4431UDC     C548735   5.948  19.859  17.858  0.5166  0.1394  0.9484
 4431UDC     C648736   6.086  19.893  17.890  0.7007 -0.1063 -0.7648
 4431UDC     C748737   6.154  19.763  17.945  0.5517 -0.1164  0.0547
 4431UDC     C848738   6.312  19.755  17.928  0.2027 -0.0168 -0.8382
 4431UDC     C948739   6.359  19.764  17.781 -0.3511  0.4851 -1.6166
 4431UDC    C1048740   6.514  19.770  17.768 -0.7528  0.8776  0.9444
 4431UDC    C1148741   6.591  19.652  17.833  0.5025 -0.1163 -0.6391
 4432UDC     C148742   8.296   1.088   7.437  0.0281  0.7037 -0.5064
 4432UDC     C248743   8.153   1.079   7.384 -0.7952  1.0436  0.3451
 4432UDC     C348744   8.157   1.012   7.246 -0.2424  1.4704 -0.6856
 4432UDC     C448745   8.235   0.878   7.245  0.9784  0.4686  0.4485
 4432UDC     C548746   8.223   0.783   7.121  0.3651  0.8484  0.3253
 4432UDC     C648747   8.249   0.629   7.141  0.4403 -0.9673  0.1497
 4432UDC     C748748   8.259   0.537   7.019  0.0727 -0.6740  0.1269
 4432UDC     C848749   8.131   0.437   7.031 -0.2386 -0.1692 -0.2631
 4432UDC     C948750   8.123   0.334   6.919  0.0197 -0.2347  0.1315
 4432UDC    C1048751   8.009   0.239   6.938 -0.1474  0.1777 -0.1551
 4432UDC    C1148752   7.964   0.159   6.814  0.4148  0.2305  0.6055
 4433UDC     C148753  16.603   7.311  15.150  0.1696  0.3565 -0.1921
 4433UDC     C248754  16.747   7.357  15.180  0.3014  1.1074 -0.2382
 4433UDC     C348755  16.762   7.435  15.307 -0.9473 -0.9217  0.0459
 4433UDC     C448756  16.915   7.464  15.333  0.9980  0.0161  0.0712
 4433UDC     C548757  16.915   7.543  15.467  0.2191  0.2119 -0.6083
 4433UDC     C648758  17.035   7.631  15.492 -0.3828 -0.3264 -0.7714
 4433UDC     C748759  17.075   7.741  15.399 -0.6292 -0.2074 -0.6326
 4433UDC     C848760  17.202   7.814  15.457 -0.3248 -0.0302  0.9347
 4433UDC     C948761  17.269   7.918  15.360 -0.1993 -0.2680 -1.1423
 4433UDC    C1048762  17.425   7.913  15.333  0.0281  0.3651 -0.1096
 4433UDC    C1148763  17.506   8.043  15.315 -1.2759 -0.9530  0.0416
 4434UDC     C148764  16.364   5.552  19.469  0.2890  0.4952  0.3958
 4434UDC     C248765  16.419   5.434  19.385  0.7153 -0.4023 -0.4709
 4434UDC     C348766  16.560   5.450  19.314  0.7872 -0.5703  0.4201
 4434UDC     C448767  16.641   5.573  19.345 -0.0620 -0.3073  0.1065
 4434UDC     C548768  16.765   5.589  19.259 -0.0824  0.0457 -0.5863
 4434UDC     C648769  16.864   5.472  19.269 -0.2128 -0.2417  0.3800
 4434UDC     C748770  16.935   5.464  19.411  1.1490  0.1045  0.3539
 4434UDC     C848771  16.962   5.331  19.474 -0.2885  0.6778 -0.7083
 4434UDC     C948772  17.067   5.321  19.583 -0.4744 -0.4002  0.0737
 4434UDC    C1048773  17.209   5.315  19.512 -0.1112 -0.0624  0.2315
 4434UDC    C1148774  17.258   5.175  19.464  0.2788  0.3231  0.3322
 4435UDC     C148775   2.700  16.484  16.076 -0.1067  1.2984  0.9325
 4435UDC     C248776   2.624  16.541  16.196 -0.3906 -0.7175 -1.3573
 4435UDC     C348777   2.561  16.443  16.294  0.1576 -0.0154 -1.0662
 4435UDC     C448778   2.524  16.499  16.433 -0.6560  0.3095  0.8063
 4435UDC     C548779   2.449  16.413  16.541  0.7859  0.0584 -0.0064
 4435UDC     C648780   2.527  16.302  16.612  0.3514 -0.4398  0.4331
 4435UDC     C748781   2.477  16.249  16.752  0.6632 -0.1116  0.1040
 4435UDC     C848782   2.578  16.147  16.819  1.2610  0.0061 -0.0933
 4435UDC     C948783   2.538  16.133  16.964  0.1054 -0.4698 -1.6537
 4435UDC    C1048784   2.621  16.047  17.065  1.2012 -0.1100  0.1693
 4435UDC    C1148785   2.520  15.998  17.174 -1.0061  0.4889  0.3449
 4436UDC     C148786   0.835   0.788  14.834  1.1969 -0.2997  0.0504
 4436UDC     C248787   0.766   0.920  14.844 -0.4067 -0.9947  0.3675
 4436UDC     C348788   0.626   0.901  14.784  0.1892 -0.0350  0.6482
 4436UDC     C448789   0.561   0.767  14.832 -0.0067 -0.4099 -0.0359
 4436UDC     C548790   0.559   0.748  14.988  0.2017 -0.2308 -0.0511
 4436UDC     C648791   0.490   0.878  15.043 -0.1354 -0.3432 -0.0874
 4436UDC     C748792   0.431   0.873  15.181 -0.2100 -0.8077 -0.4526
 4436UDC     C848793   0.387   1.011  15.235  0.8414  0.2032  0.7200
 4436UDC     C948794   0.364   1.021  15.384 -0.0882  0.1703 -1.3386
 4436UDC    C1048795   0.485   1.030  15.484  0.3591 -0.1827  1.1748
 4436UDC    C1148796   0.464   1.111  15.609 -1.3072  0.4872  0.4482
 4437UDC     C148797   6.287  16.092  14.708  0.3402  1.1000  0.8375
 4437UDC     C248798   6.420  16.005  14.712 -0.1254 -0.8431  0.7603
 4437UDC     C348799   6.544  16.101  14.725  0.0975 -0.2076 -1.0555
 4437UDC     C448800   6.558  16.229  14.641  1.0496 -0.0715  1.5775
 4437UDC     C548801   6.534  16.204  14.494 -0.1908  0.0315  0.7742
 4437UDC     C648802   6.516  16.338  14.427  0.0864 -0.4119  0.2925
 4437UDC     C748803   6.652  16.410  14.413  0.5712 -0.3849 -0.8617
 4437UDC     C848804   6.670  16.483  14.284  0.0880 -0.4812  0.6877
 4437UDC     C948805   6.815  16.516  14.253  0.6463 -0.3168  0.1962
 4437UDC    C1048806   6.840  16.616  14.148 -0.5548  0.0462  0.7313
 4437UDC    C1148807   6.761  16.551  14.040  0.2451 -0.6367 -0.0730
 4438UDC     C148808   5.784  11.749   6.358  0.7828  0.0647  0.1304
 4438UDC     C248809   5.921  11.717   6.308 -0.0891 -0.0966  0.1577
 4438UDC     C348810   6.030  11.786   6.401  0.5080 -0.1105 -0.0103
 4438UDC     C448811   6.158  11.705   6.419  0.9917 -0.5455 -0.9197
 4438UDC     C548812   6.269  11.725   6.310  0.0793 -0.1028 -0.7180
 4438UDC     C648813   6.389  11.626   6.296 -0.0186 -0.6964  0.9453
 4438UDC     C748814   6.487  11.650   6.182 -0.6894  0.2285  0.3461
 4438UDC     C848815   6.553  11.519   6.132  0.1786  0.6499 -0.3035
 4438UDC     C948816   6.654  11.567   6.028 -1.0594  0.1063  0.4347
 4438UDC    C1048817   6.688  11.463   5.919 -0.6453  0.2800 -1.3526
 4438UDC    C1148818   6.575  11.431   5.817  0.2555 -0.4373  0.6224
 4439UDC     C148819  18.363  18.691  11.793  0.2878 -0.3725 -0.0468
 4439UDC     C248820  18.278  18.792  11.711 -0.1562 -0.2974 -0.2925
 4439UDC     C348821  18.157  18.863  11.769 -0.5715  0.2716 -0.3521
 4439UDC     C448822  18.211  18.949  11.893  0.0834 -0.3384 -0.7788
 4439UDC     C548823  18.273  19.089  11.887 -1.1375  0.8805  0.6681
 4439UDC     C648824  18.248  19.164  11.754 -0.0174  0.6536  1.1726
 4439UDC     C748825  18.384  19.224  11.718 -1.0941  0.3282 -0.7538
 4439UDC     C848826  18.482  19.129  11.648  0.2248 -0.8948 -0.1148
 4439UDC     C948827  18.622  19.192  11.643 -0.0128 -0.7783 -0.3796
 4439UDC    C1048828  18.700  19.163  11.778  0.5426  0.6115 -0.7227
 4439UDC    C1148829  18.704  19.010  11.786 -1.0278 -0.1265 -0.2414
 4440UDC     C148830   7.807   9.592  18.129 -0.8906  0.5010  0.1355
 4440UDC     C248831   7.851   9.608  17.982  0.0706  0.3374 -0.7094
 4440UDC     C348832   7.977   9.674  17.933 -0.4591  0.2501 -0.8993
 4440UDC     C448833   8.023   9.787  18.029  0.3080  0.0410 -0.5119
 4440UDC     C548834   8.167   9.834  18.019 -0.2096  0.6876  1.1298
 4440UDC     C648835   8.203   9.922  18.142 -1.1592  0.0019 -0.2226
 4440UDC     C748836   8.179   9.862  18.283 -0.5548  0.3038  0.7723
 4440UDC     C848837   8.244   9.930  18.403 -0.4165 -0.4309 -0.2059
 4440UDC     C948838   8.397   9.910  18.428  1.4504 -1.2450  0.2983
 4440UDC    C1048839   8.468   9.770  18.426 -0.0389  0.5376  1.1519
 4440UDC    C1148840   8.405   9.685  18.529 -0.0149  1.2431  1.0466
 4441UDC     C148841   7.691   3.816  17.520 -0.3308 -0.6151  0.4187
 4441UDC     C248842   7.797   3.930  17.482 -0.4657 -0.1624  0.0800
 4441UDC     C348843   7.745   4.072  17.437  0.3367 -0.3835 -0.2021
 4441UDC     C448844   7.857   4.157  17.365  1.2031  0.8005 -0.5677
 4441UDC     C548845   7.821   4.192  17.217 -0.7370 -0.6612  0.2741
 4441UDC     C648846   7.834   4.348  17.176  0.5132  0.0881 -0.0736
 4441UDC     C748847   7.828   4.378  17.026 -0.4488 -0.4187  0.7743
 4441UDC     C848848   7.691   4.382  16.979  0.6242 -0.2911 -0.2952
 4441UDC     C948849   7.655   4.481  16.863  0.9149  0.9128  0.1763
 4441UDC    C1048850   7.508   4.475  16.823 -0.5520  0.0716  0.6859
 4441UDC    C1148851   7.408   4.466  16.945  0.0849 -0.0508 -0.9191
 4442UDC     C148852  10.071   8.446   7.077 -0.6609 -1.1659  1.1731
 4442UDC     C248853   9.967   8.332   7.058 -0.1431  0.3962  0.0575
 4442UDC     C348854  10.020   8.234   7.170  0.6003 -0.1054 -0.0814
 4442UDC     C448855  10.027   8.265   7.320  0.6930  0.1059 -0.0829
 4442UDC     C548856  10.106   8.160   7.409  0.4629 -0.4898  0.3326
 4442UDC     C648857  10.035   8.026   7.429 -0.4597 -0.2620 -1.0759
 4442UDC     C748858  10.066   7.924   7.540 -0.5840  0.8189 -0.0793
 4442UDC     C848859  10.005   7.791   7.501  0.0524  0.0715 -0.4230
 4442UDC     C948860  10.034   7.685   7.606 -0.6633  0.1657 -0.1784
 4442UDC    C1048861   9.931   7.574   7.615 -0.0524  0.1418  0.2314
 4442UDC    C1148862   9.987   7.448   7.695  1.1270 -1.0435  0.9999
 4443UDC     C148863  18.399   4.430   5.864 -0.8313  0.3413 -0.3072
 4443UDC     C248864  18.358   4.468   5.721  0.5474 -0.4086 -0.2714
 4443UDC     C348865  18.395   4.345   5.639 -0.2074 -0.3080  0.2332
 4443UDC     C448866  18.551   4.344   5.631  0.6680  0.1580 -0.0720
 4443UDC     C548867  18.607   4.213   5.582 -0.3365 -0.0184 -0.0444
 4443UDC     C648868  18.744   4.237   5.505  0.5745  1.2430 -0.2728
 4443UDC     C748869  18.738   4.329   5.386  0.3931 -0.2640 -0.6508
 4443UDC     C848870  18.853   4.318   5.290 -0.8237 -0.2499  0.8348
 4443UDC     C948871  18.874   4.452   5.209  0.0212  0.6390  0.5929
 4443UDC    C1048872  18.973   4.427   5.097  0.4975  0.1497  0.5017
 4443UDC    C1148873  18.968   4.297   5.018  0.4450 -0.6823 -0.6240
 4444UDC     C148874   5.216  16.264   9.728  0.1848  1.0028  0.1338
 4444UDC     C248875   5.066  16.275   9.681 -0.3730  1.6927 -0.2499
 4444UDC     C348876   4.987  16.147   9.631  0.5426 -0.8043 -0.0583
 4444UDC     C448877   5.063  16.065   9.520  0.0027  0.6205  0.4192
 4444UDC     C548878   4.955  16.004   9.434 -0.4323  0.5869  0.5010
 4444UDC     C648879   5.010  15.930   9.316  1.7194  0.6329  0.0126
 4444UDC     C748880   4.891  15.892   9.218 -0.1819  0.8426  0.0813
 4444UDC     C848881   4.922  15.843   9.072  1.1966  1.3343 -1.1429
 4444UDC     C948882   4.901  15.689   9.064  1.2710 -0.0698  1.1143
 4444UDC    C1048883   4.954  15.627   8.932  0.1054  0.1811  0.1315
 4444UDC    C1148884   5.105  15.651   8.915  0.0459 -0.5677 -1.3504
 4445UDC     C148885   7.288   0.239   5.297 -0.6730  0.3203  0.4071
 4445UDC     C248886   7.283   0.372   5.216  0.8732  0.3490 -0.9702
 4445UDC     C348887   7.146   0.395   5.139  0.0857 -1.0807  0.0943
 4445UDC     C448888   7.145   0.542   5.083  0.6531 -0.3168  0.1495
 4445UDC     C548889   7.016   0.577   5.010  1.1835  0.8681 -0.0695
 4445UDC     C648890   7.017   0.707   4.929  0.8233  0.4699  0.5202
 4445UDC     C748891   6.863   0.737   4.908 -0.7375  0.6116  0.8977
 4445UDC     C848892   6.855   0.851   4.802  0.7509  0.1743 -0.8628
 4445UDC     C948893   6.722   0.900   4.745 -0.1483 -0.6221  0.1965
 4445UDC    C1048894   6.733   1.052   4.716  0.6928  0.2342  0.5112
 4445UDC    C1148895   6.602   1.110   4.674 -0.2354 -0.5800 -0.9320
 4446UDC     C148896  15.020   4.732  19.489  0.1105  0.2366  0.4031
 4446UDC     C248897  15.150   4.718  19.564  0.7205  0.3291  0.5196
 4446UDC     C348898  15.140   4.746  19.713  0.4685  0.3786  0.4498
 4446UDC     C448899  15.105   4.624  19.800 -1.3550  0.7479  0.2635
 4446UDC     C548900  15.222   4.531  19.840  0.2255  0.7841  0.9010
 4446UDC     C648901  15.211   4.471  19.978 -0.4426 -0.0365  0.7134
 4446UDC     C748902  15.352   4.447  20.035 -0.4121 -0.0867  0.1642
 4446UDC     C848903  15.437   4.366  19.927 -0.1107  0.1060  0.4738
 4446UDC     C948904  15.402   4.219  19.906  0.1883  0.5536  0.4223
 4446UDC    C1048905  15.500   4.139  19.812  0.5974 -0.1652 -0.4282
 4446UDC    C1148906  15.435   4.108  19.676  1.3690  0.8465 -0.7800
 4447UDC     C148907   9.442   9.275  19.748  0.3773 -0.3502  0.1446
 4447UDC     C248908   9.533   9.274  19.623  0.0293 -0.2266  0.0341
 4447UDC     C348909   9.615   9.150  19.586  1.4185 -0.0012 -0.8925
 4447UDC     C448910   9.720   9.190  19.473  0.0990  0.3336 -1.2483
 4447UDC     C548911   9.762   9.086  19.373 -0.2648 -0.3066  0.3018
 4447UDC     C648912   9.813   8.949  19.417 -1.6578 -0.1213  0.3752
 4447UDC     C748913   9.955   8.946  19.488  0.0890 -0.6005  0.5885
 4447UDC     C848914  10.013   8.807  19.481  0.3338  0.0585  0.0714
 4447UDC     C948915  10.159   8.799  19.526 -0.3826 -0.3943  0.0470
 4447UDC    C1048916  10.210   8.656  19.541  0.0076  0.5911 -0.2101
 4447UDC    C1148917  10.363   8.666  19.568 -0.9025  0.4601 -0.1263
 4448UDC     C148918   9.257  10.925   0.060  0.3425 -0.1119 -0.4027
 4448UDC     C248919   9.352  11.010  -0.033 -0.3096 -0.5390 -0.2033
 4448UDC     C348920   9.500  10.955  -0.034  0.0610 -1.3973  0.4331
 4448UDC     C448921   9.612  11.028  -0.107  0.1893  0.1174  0.1145
 4448UDC     C548922   9.719  10.913  -0.129 -0.4489  1.1925 -0.1881
 4448UDC     C648923   9.676  10.810  -0.235 -1.3697 -0.3409  0.1806
 4448UDC     C748924   9.652  10.854  -0.377  0.2063  1.2158 -0.0307
 4448UDC     C848925   9.580  10.757  -0.475 -0.5425 -1.2839 -0.2188
 4448UDC     C948926   9.545  10.832  -0.604  0.7684 -0.8270 -0.2255
 4448UDC    C1048927   9.481  10.744  -0.721 -0.0633 -0.4996  1.1365
 4448UDC    C1148928   9.431  10.822  -0.848 -0.9472  1.0151 -0.4982
 4449UDC     C148929  17.108   3.957  12.797  0.3490 -0.9208  0.0030
 4449UDC     C248930  17.218   4.068  12.824  0.7768  0.8308 -0.5253
 4449UDC     C348931  17.335   4.046  12.720  0.1629 -0.2764 -0.0156
 4449UDC     C448932  17.488   4.047  12.741 -0.4749  0.2617 -0.9384
 4449UDC     C548933  17.561   3.968  12.852  1.0582  0.4535 -0.3482
 4449UDC     C648934  17.580   3.814  12.810  0.9720 -0.7354 -1.0866
 4449UDC     C748935  17.668   3.740  12.905 -0.2083  0.7822  0.2192
 4449UDC     C848936  17.695   3.586  12.873 -0.0507  0.5198  0.5167
 4449UDC     C948937  17.697   3.548  12.719  0.4211 -0.0824  0.8822
 4449UDC    C1048938  17.816   3.484  12.647  0.6094  0.3793  0.3294
 4449UDC    C1148939  17.919   3.582  12.585 -0.2559  0.7187 -0.5446
 4450UDC     C148940   0.507   1.733  11.792  0.6537 -0.5815  0.0021
 4450UDC     C248941   0.555   1.591  11.794 -0.0585 -0.5092 -0.8178
 4450UDC     C348942   0.501   1.498  11.902  0.0566 -0.6290  0.5204
 4450UDC     C448943   0.370   1.440  11.850  0.5177  0.6715 -0.0695
 4450UDC     C548944   0.360   1.343  11.733  0.5420 -0.6555  1.2411
 4450UDC     C648945   0.455   1.234  11.709  0.0388 -0.0798 -0.1448
 4450UDC     C748946   0.418   1.112  11.610  0.0634 -0.0861 -0.2365
 4450UDC     C848947   0.360   1.160  11.473  0.9649 -0.8932 -0.1310
 4450UDC     C948948   0.275   1.048  11.402  1.1245  0.0570  0.4800
 4450UDC    C1048949   0.152   1.018  11.492 -0.1380  0.2237  0.3630
 4450UDC    C1148950   0.051   0.911  11.434  0.3297  1.0209 -0.3309
 4451UDC     C148951  17.275  13.804  15.419 -0.2411  0.1117 -0.6532
 4451UDC     C248952  17.128  13.747  15.417  0.2332 -0.4050 -0.5894
 4451UDC     C348953  17.018  13.864  15.411 -0.8395  1.4888 -0.8875
 4451UDC     C448954  16.878  13.820  15.411  0.8670  0.1749 -0.4373
 4451UDC     C548955  16.778  13.935  15.393  0.6091 -0.1209 -1.0902
 4451UDC     C648956  16.787  14.050  15.500 -0.2805 -0.4512  0.2492
 4451UDC     C748957  16.683  14.152  15.468  0.1822 -0.1256  1.2514
 4451UDC     C848958  16.706  14.283  15.563  0.1513  0.4060 -0.0425
 4451UDC     C948959  16.826  14.378  15.514  0.1486 -0.6454 -0.3376
 4451UDC    C1048960  16.854  14.477  15.634  0.2941  0.8174  0.1833
 4451UDC    C1148961  16.844  14.418  15.774 -0.6617  0.1686 -0.9178
 4452UDC     C148962   5.743  16.665  12.058  0.1390 -0.4197  1.0894
 4452UDC     C248963   5.870  16.604  11.995 -0.8501 -0.6328 -0.8084
 4452UDC     C348964   5.957  16.526  12.097  0.3450 -0.5343  0.3050
 4452UDC     C448965   6.108  16.521  12.073  0.3484 -0.1776  0.9322
 4452UDC     C548966   6.138  16.414  11.963  0.6463 -0.0155  0.0949
 4452UDC     C648967   6.204  16.476  11.833 -0.5630 -0.2528  0.5594
 4452UDC     C748968   6.327  16.388  11.783  0.6522  0.0388 -0.4465
 4452UDC     C848969   6.395  16.448  11.662  0.3868  0.2894  0.1389
 4452UDC     C948970   6.312  16.411  11.536  0.4569 -0.4298  0.2812
 4452UDC    C1048971   6.344  16.277  11.486 -1.1120  0.8440 -0.0972
 4452UDC    C1148972   6.263  16.227  11.366  0.1618 -0.0280 -0.3830
 4453UDC     C148973  11.534   2.491   9.818  0.4873  0.1625 -0.2894
 4453UDC     C248974  11.620   2.446   9.693  0.4363  0.4140  0.4450
 4453UDC     C348975  11.770   2.464   9.705 -0.0988 -0.3640 -0.4607
 4453UDC     C448976  11.842   2.372   9.806  0.8995  0.0400 -0.6820
 4453UDC     C548977  11.968   2.401   9.893 -1.8048  0.6470  0.8118
 4453UDC     C648978  11.966   2.497  10.009 -0.1700 -0.8401  0.2797
 4453UDC     C748979  12.077   2.602  10.027 -0.0030 -0.5141 -0.6735
 4453UDC     C848980  12.080   2.707   9.919  0.1237  1.0197  0.0773
 4453UDC     C948981  12.193   2.816   9.931 -0.0875  0.7434 -0.6102
 4453UDC    C1048982  12.337   2.761   9.888 -0.4102  0.1476  0.7884
 4453UDC    C1148983  12.354   2.710   9.737 -0.8698  0.5204 -0.2343
 4454UDC     C148984  18.561  12.230   3.779  0.2036 -0.3429 -0.4788
 4454UDC     C248985  18.567  12.262   3.931 -0.4766  0.3032  0.3765
 4454UDC     C348986  18.434  12.268   4.010  0.4587  0.5513 -0.2027
 4454UDC     C448987  18.452  12.344   4.149  0.6177  0.2000  0.8436
 4454UDC     C548988  18.513  12.491   4.118 -1.0552  0.1429 -0.0787
 4454UDC     C648989  18.544  12.568   4.244 -0.1143 -0.8427  0.4644
 4454UDC     C748990  18.450  12.569   4.359 -0.1567  0.6867 -0.0636
 4454UDC     C848991  18.492  12.677   4.461 -0.4096  0.2265  0.0060
 4454UDC     C948992  18.640  12.682   4.498  0.4430  0.5336 -0.9419
 4454UDC    C1048993  18.666  12.770   4.618 -0.4727 -0.8020  1.0495
 4454UDC    C1148994  18.789  12.722   4.690 -0.7161 -0.4070  1.1613
 4455UDC     C148995  19.170  18.074  18.110  1.5940  0.0342 -0.3026
 4455UDC     C248996  19.108  17.932  18.132  0.5593 -0.0803 -1.1401
 4455UDC     C348997  19.210  17.823  18.183 -1.3874 -0.5794 -0.1936
 4455UDC     C448998  19.155  17.680  18.193 -0.3019  0.7918 -0.0912
 4455UDC     C548999  19.090  17.599  18.083  1.2621  0.0342 -0.5535
 4455UDC     C649000  19.080  17.450  18.120 -1.2165 -0.1847  0.9744
 4455UDC     C749001  18.955  17.411  18.183  1.3747  0.3869 -0.0914
 4455UDC     C849002  18.837  17.404  18.084  0.2888 -0.0077  0.0665
 4455UDC     C949003  18.715  17.343  18.147 -0.3924  0.7943 -0.4840
 4455UDC    C1049004  18.754  17.202  18.200 -0.5135  0.8729 -0.6147
 4455UDC    C1149005  18.642  17.135  18.279  0.7314  1.2270  0.6119
 4456UDC     C149006  16.333  14.466   3.132  0.4518  0.2271 -0.2999
 4456UDC     C249007  16.310  14.463   3.285 -0.1892 -0.7284  0.0683
 4456UDC     C349008  16.402  14.361   3.350  0.7232  0.4452  0.7003
 4456UDC     C449009  16.427  14.346   3.499 -0.0922  1.4063 -0.5466
 4456UDC     C549010  16.425  14.218   3.574 -0.0945  0.5017 -0.5831
 4456UDC     C649011  16.422  14.205   3.730  0.1186 -0.0373  0.5324
 4456UDC     C749012  16.315  14.111   3.789 -0.5579 -0.2055 -0.1639
 4456UDC     C849013  16.267  14.129   3.927  0.7224 -0.0862 -0.0514
 4456UDC     C949014  16.182  14.012   3.986  0.4325 -0.0807  0.9855
 4456UDC    C1049015  16.252  13.873   4.007 -0.8372 -0.3789  0.8770
 4456UDC    C1149016  16.341  13.858   4.128  0.6725 -0.9781 -0.0656
 4457UDC     C149017   3.435  19.870  17.115  0.0310 -0.3422  0.2526
 4457UDC     C249018   3.372  20.010  17.088 -0.6030 -0.1314 -0.1016
 4457UDC     C349019   3.447  20.112  17.165  0.9574 -0.6488 -0.9995
 4457UDC     C449020   3.467  20.242  17.083  0.6910  0.1599  0.7844
 4457UDC     C549021   3.595  20.318  17.136  0.5184 -0.2170 -1.0767
 4457UDC     C649022   3.587  20.324  17.290  0.2197 -0.1704 -0.9610
 4457UDC     C749023   3.723  20.356  17.346 -0.2251  0.3423  0.8573
 4457UDC     C849024   3.805  20.231  17.361 -0.4547 -1.3881  0.0034
 4457UDC     C949025   3.934  20.227  17.445 -0.7273  0.2442 -0.0497
 4457UDC    C1049026   4.030  20.114  17.408 -1.0442 -0.3259  0.4082
 4457UDC    C1149027   4.068  20.081  17.266 -0.5015  0.7754  0.9610
 4458UDC     C149028   4.364  16.465   2.934  0.1205  0.4158  0.1294
 4458UDC     C249029   4.252  16.495   2.824 -1.1659  0.9593 -0.5835
 4458UDC     C349030   4.156  16.606   2.871  0.1148 -0.4655 -0.6152
 4458UDC     C449031   4.048  16.637   2.764 -0.9938  0.3420  0.0219
 4458UDC     C549032   4.067  16.772   2.685  0.8316  0.7711  0.0500
 4458UDC     C649033   3.922  16.811   2.640 -0.0621 -0.0584 -0.0649
 4458UDC     C749034   3.918  16.962   2.628 -0.6379  1.0274 -0.6948
 4458UDC     C849035   3.784  17.011   2.568 -0.6698  0.8160 -0.2876
 4458UDC     C949036   3.741  17.137   2.632  0.9823  0.6032 -1.0054
 4458UDC    C1049037   3.698  17.151   2.778  0.4167  0.0630 -0.5392
 4458UDC    C1149038   3.675  17.298   2.828  0.9302  0.0878 -0.4379
 4459UDC     C149039   1.059   3.857   9.180 -0.8545 -0.4904  0.1497
 4459UDC     C249040   0.924   3.919   9.141 -0.1611  0.9170  0.3608
 4459UDC     C349041   0.927   4.018   9.028  0.5587 -0.6293 -0.2626
 4459UDC     C449042   0.958   3.948   8.899 -0.0939 -0.2499  0.5264
 4459UDC     C549043   0.961   4.040   8.772  0.3287  0.1288  0.2456
 4459UDC     C649044   1.043   4.169   8.785  0.0951  0.2850 -0.1566
 4459UDC     C749045   1.058   4.268   8.664 -0.1378 -0.4099 -0.3140
 4459UDC     C849046   1.147   4.387   8.680 -0.5459 -0.0989  0.9589
 4459UDC     C949047   1.299   4.353   8.675 -0.6839 -0.6035  0.1737
 4459UDC    C1049048   1.394   4.465   8.710 -1.1745 -0.6628 -0.7622
 4459UDC    C1149049   1.395   4.581   8.609  0.4344  0.5760  0.0568
 4460UDC     C149050  13.195   9.831   9.900 -0.7871  0.3089 -0.4707
 4460UDC     C249051  13.077   9.899   9.830  0.2044 -0.0484 -0.8517
 4460UDC     C349052  13.107  10.019   9.750  0.3573 -0.7227 -0.0901
 4460UDC     C449053  12.982  10.094   9.718 -0.7308 -0.8552 -0.2485
 4460UDC     C549054  12.891  10.133   9.839  0.8244  0.3998 -0.0103
 4460UDC     C649055  12.956  10.233   9.937 -0.1284 -0.9095  0.0405
 4460UDC     C749056  12.832  10.285  10.011 -0.4193 -0.0990 -0.0906
 4460UDC     C849057  12.772  10.164  10.100 -0.1269 -0.0869  0.5266
 4460UDC     C949058  12.624  10.189  10.147  0.6285  0.4477  0.3169
 4460UDC    C1049059  12.525  10.189  10.034 -0.4774 -0.4208  0.7819
 4460UDC    C1149060  12.377  10.222  10.076 -0.0933  0.2681 -0.8459
 4461UDC     C149061   6.508   3.326  13.740  0.5130 -0.4751  0.3508
 4461UDC     C249062   6.363   3.284  13.759  0.5948  0.1846  0.7436
 4461UDC     C349063   6.339   3.290  13.912 -0.5664  0.5618  0.1844
 4461UDC     C449064   6.190   3.280  13.943 -0.7788  0.2612 -0.7931
 4461UDC     C549065   6.156   3.159  14.024  0.1136 -0.3283 -0.2553
 4461UDC     C649066   6.023   3.173  14.104 -0.9424 -0.0945 -0.8305
 4461UDC     C749067   6.052   3.270  14.223  0.2080 -0.6409 -0.3192
 4461UDC     C849068   6.167   3.210  14.304  0.6110  0.4745  0.3991
 4461UDC     C949069   6.102   3.087  14.367 -0.6880 -0.7973  1.0449
 4461UDC    C1049070   6.203   3.011  14.455 -0.6803  0.2702  0.4171
 4461UDC    C1149071   6.313   2.956  14.358  0.6621 -0.6350 -0.1903
 4462UDC     C149072   1.892  16.329   8.402 -0.6201 -0.3035 -0.6366
 4462UDC     C249073   1.947  16.409   8.526 -0.6181  0.2699  0.0518
 4462UDC     C349074   1.876  16.541   8.558 -0.3241 -0.1679 -0.6579
 4462UDC     C449075   1.733  16.519   8.593 -0.4948 -0.0858  0.5304
 4462UDC     C549076   1.657  16.641   8.643  0.0772 -0.3540 -0.6034
 4462UDC     C649077   1.513  16.612   8.691 -1.0687  0.2278  0.5666
 4462UDC     C749078   1.429  16.552   8.581  0.3241 -0.0366  0.3223
 4462UDC     C849079   1.276  16.541   8.615 -0.0726  0.0589  0.4274
 4462UDC     C949080   1.201  16.460   8.509 -0.0952 -1.2678  0.5489
 4462UDC    C1049081   1.045  16.444   8.528 -0.7381  0.5577  0.0600
 4462UDC    C1149082   0.959  16.560   8.500 -0.5236 -0.5021 -0.2262
 4463UDC     C149083  16.505   9.056   6.579 -0.0274 -0.1905 -0.1032
 4463UDC     C249084  16.505   9.071   6.734 -0.1626  0.6670  0.0438
 4463UDC     C349085  16.480   8.948   6.825 -0.4182  0.9087  0.3869
 4463UDC     C449086  16.334   8.927   6.863  0.4486  0.3034 -0.6167
 4463UDC     C549087  16.277   9.050   6.950 -0.0536  0.7537  0.1447
 4463UDC     C649088  16.128   9.029   6.991 -1.1976 -0.4992 -0.7766
 4463UDC     C749089  16.031   9.021   6.870 -0.5357  0.1132 -0.1570
 4463UDC     C849090  15.884   9.029   6.908 -0.2712  0.2621 -0.1249
 4463UDC     C949091  15.799   9.147   6.852  0.7324  0.8155  0.2457
 4463UDC    C1049092  15.663   9.146   6.926 -0.9914  0.6601 -1.0742
 4463UDC    C1149093  15.545   9.195   6.842 -0.6186  0.3460 -0.8817
 4464UDC     C149094  14.692   1.193  18.573  0.1991  0.0177 -0.2802
 4464UDC     C249095  14.769   1.128  18.686  0.7123  0.5609 -0.6129
 4464UDC     C349096  14.752   1.199  18.823  1.7030  1.2089 -0.6302
 4464UDC     C449097  14.814   1.139  18.950  0.0291  0.8202  0.2540
 4464UDC     C549098  14.806   1.231  19.067 -0.1077 -0.8595 -0.1666
 4464UDC     C649099  14.870   1.180  19.198  0.3054 -0.0733  0.9140
 4464UDC     C749100  14.769   1.122  19.289  0.7346  0.1802  0.8453
 4464UDC     C849101  14.823   1.113  19.433  0.4282  0.5415  0.8678
 4464UDC     C949102  14.945   1.016  19.445 -0.8372 -0.3995 -0.0467
 4464UDC    C1049103  15.006   1.013  19.588 -0.0189 -1.9381  1.0430
 4464UDC    C1149104  14.900   0.993  19.699 -0.0414  0.7181  0.3578
 4465UDC     C149105  19.259  18.087  17.191  0.6194  0.6915 -0.6135
 4465UDC     C249106  19.138  18.129  17.271 -0.4504 -0.0481 -0.4441
 4465UDC     C349107  19.162  18.281  17.318  0.1987  0.1467 -0.4368
 4465UDC     C449108  19.049  18.369  17.364 -1.1789 -0.5272  0.1787
 4465UDC     C549109  19.050  18.515  17.418  0.7358 -0.2554  0.3861
 4465UDC     C649110  18.904  18.524  17.471 -0.9684 -0.8548  0.0529
 4465UDC     C749111  18.800  18.585  17.376 -0.9172  0.6216  0.7726
 4465UDC     C849112  18.826  18.735  17.356 -0.3421  0.3523  0.3764
 4465UDC     C949113  18.837  18.814  17.483 -0.6275 -0.6958 -0.7849
 4465UDC    C1049114  18.907  18.950  17.460 -0.2512  0.9869 -0.6427
 4465UDC    C1149115  18.965  19.019  17.585 -0.0741 -0.1998 -0.4704
 4466UDC     C149116   3.783  13.828   9.842 -0.6174 -0.1735 -0.1521
 4466UDC     C249117   3.905  13.901   9.912  0.3222 -0.2718 -0.7475
 4466UDC     C349118   4.040  13.910   9.839 -0.1714 -0.5065  0.6470
 4466UDC     C449119   4.157  13.879   9.942 -0.0320  0.9043 -0.8123
 4466UDC     C549120   4.159  13.741  10.011  0.9554  0.5982  0.3186
 4466UDC     C649121   4.231  13.726  10.149  0.0618 -0.5023 -0.3327
 4466UDC     C749122   4.376  13.749  10.171 -0.5908 -0.8574 -0.6212
 4466UDC     C849123   4.443  13.651  10.268  0.7234  0.4067 -0.2649
 4466UDC     C949124   4.370  13.650  10.402 -0.7617  1.1093 -0.1784
 4466UDC    C1049125   4.452  13.554  10.490 -0.3446  0.5240  0.8157
 4466UDC    C1149126   4.588  13.598  10.546 -1.1485 -0.0515  0.7563
 4467UDC     C149127   0.689  16.380  13.450  0.3947  2.0587 -1.3380
 4467UDC     C249128   0.792  16.493  13.475 -0.5457 -0.4686  0.1753
 4467UDC     C349129   0.848  16.564  13.359 -1.2943 -1.1643  0.0517
 4467UDC     C449130   0.917  16.697  13.380 -0.8387 -0.3166  0.3058
 4467UDC     C549131   0.843  16.818  13.323 -0.2789  0.3308 -1.0151
 4467UDC     C649132   0.930  16.945  13.318  0.5402 -0.0402 -0.3179
 4467UDC     C749133   0.870  17.088  13.282  0.9815 -1.0526 -0.0301
 4467UDC     C849134   0.803  17.105  13.145  0.5427  0.5218 -0.1406
 4467UDC     C949135   0.741  17.235  13.100 -0.7261  0.9582  1.3145
 4467UDC    C1049136   0.666  17.230  12.964  0.6364  1.3428  0.4762
 4467UDC    C1149137   0.542  17.139  12.947 -0.3726 -0.0045  1.0183
 4468UDC     C149138  13.879  17.417   5.542  0.0533 -0.9417  0.7887
 4468UDC     C249139  13.816  17.464   5.409 -1.0677  0.3307 -0.7598
 4468UDC     C349140  13.730  17.587   5.423 -0.5157 -0.1409  0.0792
 4468UDC     C449141  13.652  17.621   5.296 -0.3601  0.2743  1.5240
 4468UDC     C549142  13.674  17.505   5.197 -0.0766 -0.1451  0.0563
 4468UDC     C649143  13.718  17.551   5.054 -1.1603 -0.1721  0.3271
 4468UDC     C749144  13.706  17.447   4.934  1.0797 -0.4654 -0.1546
 4468UDC     C849145  13.798  17.469   4.818 -0.3170  0.0704  0.3548
 4468UDC     C949146  13.772  17.347   4.722 -0.2771  0.6231  0.0850
 4468UDC    C1049147  13.898  17.350   4.636 -1.1925  0.2633 -0.1338
 4468UDC    C1149148  13.915  17.229   4.547 -0.5415  0.8811  0.9076
 4469UDC     C149149  13.046   5.434  16.587 -0.8144  1.3344 -0.4191
 4469UDC     C249150  13.016   5.579  16.623 -0.1242  1.5435 -0.8419
 4469UDC     C349151  12.868   5.594  16.635 -0.3890  0.0417  0.2150
 4469UDC     C449152  12.824   5.739  16.677 -0.0259  0.3054  0.2220
 4469UDC     C549153  12.863   5.777  16.821 -0.7684 -0.8479  0.7205
 4469UDC     C649154  12.819   5.679  16.934 -0.3820 -0.2384 -0.2366
 4469UDC     C749155  12.814   5.752  17.071  0.0160 -0.4064  0.4327
 4469UDC     C849156  12.758   5.672  17.184  0.8870 -0.5425  0.7410
 4469UDC     C949157  12.692   5.748  17.306 -0.2252 -0.1726 -0.4107
 4469UDC    C1049158  12.543   5.800  17.292  0.0134  0.2036  0.5077
 4469UDC    C1149159  12.440   5.690  17.255 -0.9175  0.0649  0.0386
 4470UDC     C149160   6.488   9.447   1.535 -0.0981  0.0116 -0.0376
 4470UDC     C249161   6.587   9.334   1.491 -0.2520  0.8475 -0.5069
 4470UDC     C349162   6.508   9.205   1.449 -0.7549 -0.5875 -1.2442
 4470UDC     C449163   6.408   9.161   1.559 -0.9183 -0.4705 -0.5897
 4470UDC     C549164   6.468   9.112   1.690 -0.9264 -0.1611 -1.2797
 4470UDC     C649165   6.542   8.976   1.685 -0.2558  0.0595  0.2870
 4470UDC     C749166   6.622   8.942   1.809 -0.1733  0.2717 -0.5680
 4470UDC     C849167   6.672   8.792   1.838  0.6424  0.1894  0.0406
 4470UDC     C949168   6.739   8.749   1.712  0.1346  0.7755  0.5697
 4470UDC    C1049169   6.841   8.632   1.724  0.7068 -0.0094 -0.0035
 4470UDC    C1149170   6.824   8.519   1.626 -0.1931  0.6251  0.8016
 4471UDC     C149171  16.373   9.034   4.681 -0.0982 -0.0711  0.8052
 4471UDC     C249172  16.513   9.081   4.653 -0.3109 -0.2179 -1.1474
 4471UDC     C349173  16.548   9.161   4.532 -0.7332 -0.6547  0.6020
 4471UDC     C449174  16.475   9.297   4.494 -0.7490 -0.2380 -0.3913
 4471UDC     C549175  16.545   9.342   4.367  0.1940  1.2742 -0.2468
 4471UDC     C649176  16.441   9.425   4.279 -0.1605  0.5733 -1.3435
 4471UDC     C749177  16.340   9.329   4.231  0.1590  0.7667  0.7009
 4471UDC     C849178  16.236   9.369   4.128  0.2810 -0.2030 -0.5707
 4471UDC     C949179  16.138   9.487   4.179 -0.3890  0.1491 -0.6296
 4471UDC    C1049180  16.055   9.538   4.067 -0.3487 -0.2336  0.0582
 4471UDC    C1149181  15.984   9.429   3.990 -0.4088 -0.0253 -0.2168
 4472UDC     C149182   6.033  16.192   6.566 -1.1780  0.0931 -0.5921
 4472UDC     C249183   6.139  16.260   6.468  0.5408  0.1910  0.3591
 4472UDC     C349184   6.080  16.383   6.407  1.5472 -0.9175  1.1895
 4472UDC     C449185   6.051  16.519   6.483 -0.7195  0.1913  0.6404
 4472UDC     C549186   5.966  16.604   6.395  0.5497 -0.0334  0.4183
 4472UDC     C649187   6.034  16.650   6.266 -0.8791  0.5992 -0.3089
 4472UDC     C749188   5.937  16.720   6.171 -0.7598 -0.1492 -0.0800
 4472UDC     C849189   5.990  16.776   6.033 -1.0651  0.2447 -0.1473
 4472UDC     C949190   5.872  16.837   5.951  1.2905 -1.3994 -0.2565
 4472UDC    C1049191   5.888  16.854   5.794 -0.4449 -1.2010  0.1191
 4472UDC    C1149192   5.816  16.985   5.777  0.1435 -0.4965 -0.2544
 4473UDC     C149193  17.653  11.776   4.611  0.0681  0.4301 -0.2830
 4473UDC     C249194  17.661  11.648   4.703  0.6587 -0.7668 -0.1060
 4473UDC     C349195  17.669  11.681   4.851 -1.4349 -0.6230 -1.0808
 4473UDC     C449196  17.553  11.734   4.928 -0.1166 -0.0211 -0.1112
 4473UDC     C549197  17.555  11.715   5.079  0.3731 -0.2109  0.4759
 4473UDC     C649198  17.702  11.751   5.128 -0.2849 -0.1981  0.4964
 4473UDC     C749199  17.706  11.814   5.264  0.0862  0.2453 -0.1303
 4473UDC     C849200  17.845  11.867   5.296 -0.3513 -0.6461  0.8869
 4473UDC     C949201  17.965  11.773   5.263  0.0427  0.2965 -0.1386
 4473UDC    C1049202  18.110  11.804   5.294 -0.5079  0.9338 -0.6763
 4473UDC    C1149203  18.172  11.901   5.205  0.7783 -0.3536 -0.1371
 4474UDC     C149204   4.642   9.863   6.821 -0.0408 -0.2550  0.5180
 4474UDC     C249205   4.792   9.871   6.855  0.1391  0.4223 -1.1758
 4474UDC     C349206   4.857   9.979   6.763  0.4915 -0.1428  0.8346
 4474UDC     C449207   5.006   9.982   6.722 -0.1781  0.3193 -0.0433
 4474UDC     C549208   5.019  10.091   6.617 -0.2771 -1.0257 -1.5618
 4474UDC     C649209   4.970  10.229   6.672 -0.5667 -0.2847 -0.0799
 4474UDC     C749210   4.986  10.352   6.581 -1.1461 -0.1692  0.3432
 4474UDC     C849211   4.928  10.476   6.650  0.2007 -1.2621  0.3534
 4474UDC     C949212   4.983  10.481   6.791  0.0547 -1.1357 -0.6551
 4474UDC    C1049213   5.012  10.622   6.861 -0.0356  0.2328  0.3723
 4474UDC    C1149214   5.061  10.608   7.008  0.6050  0.7109 -0.4171
 4475UDC     C149215  10.188   3.284  11.025 -0.2739  1.3807 -0.6639
 4475UDC     C249216  10.031   3.285  11.048 -0.4521  0.0388  0.1083
 4475UDC     C349217   9.997   3.215  11.179 -0.5301  0.6860 -0.4572
 4475UDC     C449218   9.850   3.225  11.220 -0.2237  0.2012 -0.6355
 4475UDC     C549219   9.805   3.116  11.311 -0.2722  0.2454 -0.0684
 4475UDC     C649220   9.656   3.090  11.286 -0.2681  1.0595  0.5254
 4475UDC     C749221   9.597   2.991  11.396 -0.8665 -1.1941  0.1443
 4475UDC     C849222   9.658   3.005  11.531  0.4399 -0.5573  0.4678
 4475UDC     C949223   9.654   2.874  11.615 -0.8125 -0.6280  0.2583
 4475UDC    C1049224   9.533   2.850  11.701 -0.0083 -1.6215  0.0202
 4475UDC    C1149225   9.539   2.708  11.740 -0.2893 -0.8348  0.1103
 4476UDC     C149226  16.175  10.078   6.953 -0.2684 -0.1185 -0.1149
 4476UDC     C249227  16.072   9.982   7.021  0.5665  0.2781 -0.9446
 4476UDC     C349228  16.009  10.061   7.141 -0.7100  0.5331 -0.2112
 4476UDC     C449229  16.119  10.131   7.227  0.3050 -0.3140 -0.8503
 4476UDC     C549230  16.068  10.265   7.276  0.4992 -0.6925 -0.4224
 4476UDC     C649231  16.067  10.301   7.423 -0.3682  0.6314 -0.4383
 4476UDC     C749232  16.220  10.301   7.466  0.3387  0.5072 -0.7482
 4476UDC     C849233  16.252  10.365   7.597  0.2435  1.0724 -0.7019
 4476UDC     C949234  16.258  10.518   7.617  0.1612 -0.6000 -0.0169
 4476UDC    C1049235  16.236  10.530   7.764  0.2467  0.8617 -0.1115
 4476UDC    C1149236  16.331  10.450   7.858  1.0512  0.3097  0.3513
 4477UDC     C149237  14.845   5.055   3.784  0.3182 -0.0380 -1.4020
 4477UDC     C249238  14.847   5.203   3.752 -0.7823 -0.4771 -0.7743
 4477UDC     C349239  14.968   5.279   3.802  0.3886  0.6354  0.8805
 4477UDC     C449240  15.004   5.292   3.954 -0.1804 -0.0009  0.6740
 4477UDC     C549241  15.161   5.329   3.969 -1.3353  0.4545 -0.2133
 4477UDC     C649242  15.244   5.218   3.894  0.0626  0.0995  0.1186
 4477UDC     C749243  15.392   5.245   3.913  0.1669  0.9019 -0.1538
 4477UDC     C849244  15.485   5.125   3.875  0.4928 -0.0307  0.0411
 4477UDC     C949245  15.633   5.157   3.886 -0.4834 -0.8183 -0.5972
 4477UDC    C1049246  15.674   5.233   4.012 -0.0136 -0.3816  0.3996
 4477UDC    C1149247  15.811   5.306   4.001 -0.3090 -0.3333 -0.4410
 4478UDC     C149248   3.365  18.278  14.306 -0.2464  0.6153  0.5409
 4478UDC     C249249   3.469  18.190  14.371 -0.3805  0.1279 -0.5514
 4478UDC     C349250   3.476  18.210  14.523  0.4486  0.0924  0.1616
 4478UDC     C449251   3.536  18.108  14.622 -0.6673  0.0760 -0.4327
 4478UDC     C549252   3.535  18.173  14.755  0.5110 -0.3054  0.1729
 4478UDC     C649253   3.607  18.314  14.763  0.2843  0.4745  0.6364
 4478UDC     C749254   3.686  18.325  14.888 -0.0583  0.0543 -0.2320
 4478UDC     C849255   3.792  18.216  14.921  1.1651  0.0395  0.1373
 4478UDC     C949256   3.864  18.229  15.057  0.2077  0.0642  0.0766
 4478UDC    C1049257   3.992  18.149  15.082  0.5271  0.3648  0.1027
 4478UDC    C1149258   3.991  17.997  15.067 -0.1494 -0.2430  0.0576
 4479UDC     C149259  18.122   8.511   7.487  1.6503  0.1226 -0.1178
 4479UDC     C249260  18.187   8.649   7.466 -0.1438 -0.8772 -0.4678
 4479UDC     C349261  18.224   8.730   7.589 -0.4323  0.7055 -0.4627
 4479UDC     C449262  18.344   8.660   7.653 -0.1294 -0.9104 -0.1947
 4479UDC     C549263  18.428   8.748   7.752 -0.5368  0.1731  1.1333
 4479UDC     C649264  18.358   8.798   7.879 -0.6477 -0.3466 -0.0253
 4479UDC     C749265  18.439   8.909   7.936 -0.0226  0.4883  0.4745
 4479UDC     C849266  18.359   9.004   8.024  0.0954 -0.7989 -0.2672
 4479UDC     C949267  18.329   8.953   8.163  0.5850 -0.4476  0.4092
 4479UDC    C1049268  18.348   9.038   8.292  0.1684 -1.4224 -0.9540
 4479UDC    C1149269  18.214   9.107   8.337  0.2223  0.3880 -0.2476
 4480UDC     C149270   8.526  19.424   3.741 -0.2050  0.1528 -0.3119
 4480UDC     C249271   8.678  19.408   3.753 -0.0973  0.9902 -0.0896
 4480UDC     C349272   8.731  19.479   3.879  0.3017 -0.4429  0.1773
 4480UDC     C449273   8.859  19.425   3.922 -1.2035  0.3947 -0.4431
 4480UDC     C549274   8.960  19.511   3.999 -0.9667  0.4558 -0.3243
 4480UDC     C649275   9.101  19.446   4.020 -0.1705  0.5840  0.5995
 4480UDC     C749276   9.230  19.520   4.047  0.8247  1.3348  1.1524
 4480UDC     C849277   9.234  19.587   4.183  0.1032 -0.4332 -0.2009
 4480UDC     C949278   9.150  19.509   4.300 -0.8286 -0.4868  0.1035
 4480UDC    C1049279   9.166  19.356   4.331 -0.0374 -0.0074 -0.3649
 4480UDC    C1149280   9.311  19.318   4.335 -0.8656  0.3063 -0.0315
 4481UDC     C149281   9.793   5.195  11.083 -0.0757 -0.1032 -0.2425
 4481UDC     C249282   9.763   5.092  11.193  0.0891 -0.0231 -0.1294
 4481UDC     C349283   9.824   4.957  11.151  0.5353 -0.1112 -0.9503
 4481UDC     C449284   9.850   4.866  11.271  0.0063  0.8075 -0.6198
 4481UDC     C549285   9.968   4.772  11.232 -0.4397  0.7135  0.0509
 4481UDC     C649286  10.105   4.807  11.299 -0.2563  0.1883  0.5261
 4481UDC     C749287  10.126   4.792  11.449  1.0714  1.5582  0.8418
 4481UDC     C849288  10.126   4.645  11.498  0.3197 -1.0532  0.2823
 4481UDC     C949289  10.163   4.621  11.639  1.2458  1.1261  0.0524
 4481UDC    C1049290  10.306   4.658  11.681 -0.1039  1.9216  0.2657
 4481UDC    C1149291  10.330   4.776  11.768 -0.1737 -0.8070 -1.1513
 4482UDC     C149292  18.984   3.268  12.908  0.4873  0.2028 -0.1364
 4482UDC     C249293  19.010   3.141  12.828  0.0159  0.4566  0.9025
 4482UDC     C349294  18.955   3.019  12.898  0.3196 -0.4908  0.0846
 4482UDC     C449295  18.796   3.019  12.896  0.0641  0.7241 -0.3590
 4482UDC     C549296  18.716   2.901  12.954  0.5017  0.6547 -0.5942
 4482UDC     C649297  18.639   2.919  13.087  0.4719  0.1134  0.1000
 4482UDC     C749298  18.536   3.040  13.090 -0.2665  0.3720 -0.7244
 4482UDC     C849299  18.415   3.022  13.188  0.1082  0.3245 -1.2023
 4482UDC     C949300  18.306   2.941  13.114 -0.2185 -0.2000 -0.3253
 4482UDC    C1049301  18.178   2.925  13.198  0.7453 -0.2977  0.8118
 4482UDC    C1149302  18.058   2.886  13.108  0.5295 -0.0615 -1.0625
 4483UDC     C149303  16.700   5.671  17.003 -0.3487  0.8842  0.1397
 4483UDC     C249304  16.762   5.612  17.134  0.0072  0.5363 -0.5374
 4483UDC     C349305  16.795   5.736  17.227 -0.1607  0.0047  0.5093
 4483UDC     C449306  16.878   5.851  17.164  0.5800  0.1690  0.0498
 4483UDC     C549307  16.929   5.974  17.236 -0.2397  0.7857  0.2538
 4483UDC     C649308  16.807   6.072  17.258 -0.4491  0.3634 -0.3891
 4483UDC     C749309  16.826   6.218  17.208  0.4926  0.3385  0.0108
 4483UDC     C849310  16.747   6.229  17.080  0.3018  0.8219 -0.0168
 4483UDC     C949311  16.592   6.194  17.068 -0.9533 -1.4743 -0.5789
 4483UDC    C1049312  16.513   6.302  17.146  0.9139 -0.6071  0.4458
 4483UDC    C1149313  16.499   6.443  17.087  0.0946  0.0595 -0.3737
 4484UDC     C149314   0.695   2.773   1.395  0.4664  0.0478  0.0452
 4484UDC     C249315   0.673   2.765   1.542  1.3565  1.0465 -1.2305
 4484UDC     C349316   0.711   2.875   1.636 -0.3384 -0.0977  0.1634
 4484UDC     C449317   0.674   2.838   1.780 -1.0892 -0.0938 -0.1802
 4484UDC     C549318   0.774   2.755   1.850 -0.7392  0.3101  0.3101
 4484UDC     C649319   0.720   2.718   1.987  0.4176  0.5425 -0.6483
 4484UDC     C749320   0.675   2.834   2.083  0.5872 -0.5269  0.6799
 4484UDC     C849321   0.710   2.819   2.235 -0.3908  0.0013  0.4462
 4484UDC     C949322   0.702   2.939   2.325  0.1299  0.1614 -0.0461
 4484UDC    C1049323   0.639   2.893   2.458  1.2428 -0.5323 -0.7700
 4484UDC    C1149324   0.524   2.993   2.502  0.2108 -1.3465 -0.8670
 4485UDC     C149325   3.350  12.237   4.451 -0.0348  0.6036  0.3974
 4485UDC     C249326   3.426  12.107   4.417  0.4324 -0.0818  0.3232
 4485UDC     C349327   3.505  12.038   4.529 -0.6256  1.0022 -0.7854
 4485UDC     C449328   3.594  12.134   4.600 -0.3732 -0.2115 -0.0167
 4485UDC     C549329   3.664  12.248   4.534 -0.3828 -0.0818  1.5965
 4485UDC     C649330   3.815  12.231   4.505  0.7568 -0.1849 -0.0833
 4485UDC     C749331   3.854  12.249   4.363 -0.5570 -0.3842  0.5869
 4485UDC     C849332   3.777  12.189   4.241  0.4666 -0.1785  0.2297
 4485UDC     C949333   3.853  12.056   4.214 -0.0978 -0.9488  0.4887
 4485UDC    C1049334   3.995  12.093   4.166  0.8542  0.6225  0.0503
 4485UDC    C1149335   4.087  11.974   4.146  0.7008 -0.0842 -0.4261
 4486UDC     C149336  14.950  19.584   7.009 -0.7112 -0.3276 -0.2298
 4486UDC     C249337  14.880  19.448   7.032 -1.5634 -0.3700 -0.3101
 4486UDC     C349338  14.869  19.408   7.179 -0.1873 -0.4138  0.2286
 4486UDC     C449339  14.792  19.504   7.269  0.3607 -0.7573  0.0424
 4486UDC     C549340  14.770  19.471   7.418 -0.3566 -0.6478  0.0769
 4486UDC     C649341  14.648  19.526   7.484 -0.0462  0.1648  0.6966
 4486UDC     C749342  14.670  19.509   7.636 -0.2602  0.9595  0.4850
 4486UDC     C849343  14.778  19.596   7.700 -0.5156 -0.5143 -0.1631
 4486UDC     C949344  14.928  19.574   7.677  0.3590 -0.2427  0.1364
 4486UDC    C1049345  14.978  19.435   7.700  0.0534 -0.7719 -1.1248
 4486UDC    C1149346  15.121  19.412   7.645 -0.9573 -0.7939  0.0827
 4487UDC     C149347  17.943   2.126  19.812 -0.6593  0.9542 -0.3435
 4487UDC     C249348  17.950   1.984  19.853  0.4020 -1.0885  0.2289
 4487UDC     C349349  17.953   1.959  20.007 -0.8298  0.7700  0.9529
 4487UDC     C449350  17.839   1.860  20.012 -0.1772 -0.0905  0.5337
 4487UDC     C549351  17.805   1.801  20.148  1.3395  0.3726  0.4936
 4487UDC     C649352  17.741   1.664  20.155 -0.8109  0.3673  0.4944
 4487UDC     C749353  17.823   1.556  20.089 -0.6319 -0.6885  0.8023
 4487UDC     C849354  17.748   1.430  20.039  0.4177 -0.7167  0.5730
 4487UDC     C949355  17.741   1.393  19.891  0.2402 -0.3223 -0.6794
 4487UDC    C1049356  17.689   1.249  19.873 -0.7976  0.3224  0.6824
 4487UDC    C1149357  17.785   1.148  19.940  0.2944 -0.2718 -0.3811
 4488UDC     C149358  19.071   0.823  18.622 -0.3942 -0.3385 -0.3781
 4488UDC     C249359  19.133   0.695  18.561 -0.1007  0.1897 -0.6021
 4488UDC     C349360  19.240   0.634  18.660  0.0341 -0.4160  0.0100
 4488UDC     C449361  19.266   0.725  18.783 -0.3416 -0.1726 -1.0980
 4488UDC     C549362  19.407   0.795  18.782  0.3656  0.0866 -1.2551
 4488UDC     C649363  19.430   0.918  18.699  0.1665  1.2864  0.1350
 4488UDC     C749364  19.561   0.983  18.723 -0.0268  0.6197 -0.2898
 4488UDC     C849365  19.554   1.120  18.644 -0.4722 -0.2495 -0.4036
 4488UDC     C949366  19.463   1.224  18.702 -0.4496 -0.7424 -0.9430
 4488UDC    C1049367  19.515   1.356  18.653  0.3412 -0.2064 -0.0471
 4488UDC    C1149368  19.664   1.396  18.685 -0.3055 -0.3474  0.0465
 4489UDC     C149369   9.683  14.471  11.922 -0.3636  0.1038 -0.3347
 4489UDC     C249370   9.619  14.583  11.838  0.9483 -0.5752  0.4584
 4489UDC     C349371   9.588  14.561  11.687 -0.0086 -0.6651 -0.6109
 4489UDC     C449372   9.582  14.700  11.621  0.4388 -0.3112  0.0605
 4489UDC     C549373   9.446  14.768  11.613  0.1229 -0.3511 -0.2803
 4489UDC     C649374   9.363  14.721  11.486  0.1949 -0.9409 -1.2804
 4489UDC     C749375   9.429  14.763  11.347  0.3609  0.0226 -0.6624
 4489UDC     C849376   9.408  14.896  11.279  0.8943 -0.6584 -0.9362
 4489UDC     C949377   9.469  14.892  11.137  0.3709 -0.5679 -0.1635
 4489UDC    C1049378   9.427  15.002  11.032  0.5619 -0.5051  0.1348
 4489UDC    C1149379   9.276  15.021  11.050 -0.2027 -0.1633  0.3714
 4490UDC     C149380   7.146   1.077  13.544 -0.0812 -0.0819 -0.0826
 4490UDC     C249381   7.183   0.936  13.504  0.1003 -0.5065  0.4296
 4490UDC     C349382   7.227   0.866  13.632 -0.0897  0.2645  0.0643
 4490UDC     C449383   7.376   0.890  13.649 -0.7413  0.4524  0.8138
 4490UDC     C549384   7.451   0.779  13.580 -0.4966 -1.1407  0.0889
 4490UDC     C649385   7.590   0.758  13.642  0.2158  0.3113 -0.0758
 4490UDC     C749386   7.660   0.649  13.556 -0.6554 -0.0166 -0.1181
 4490UDC     C849387   7.775   0.593  13.636 -0.1976  0.8061 -0.0993
 4490UDC     C949388   7.876   0.693  13.693 -0.7132 -0.3643 -0.5628
 4490UDC    C1049389   8.013   0.628  13.722  0.2110 -0.2856  0.1085
 4490UDC    C1149390   8.007   0.510  13.817  0.2110  0.9041 -0.6096
 4491UDC     C149391   2.755   7.589  10.412 -0.3325  0.2850 -1.4756
 4491UDC     C249392   2.830   7.678  10.515 -0.9243  0.7305  0.9600
 4491UDC     C349393   2.821   7.644  10.665 -0.5885  0.1140 -0.1477
 4491UDC     C449394   2.941   7.701  10.752  0.5542 -0.2315  0.5198
 4491UDC     C549395   2.975   7.619  10.879 -0.9515  1.2118 -0.8215
 4491UDC     C649396   3.093   7.680  10.966  0.9034  1.0141 -0.2290
 4491UDC     C749397   3.149   7.574  11.056 -1.2338 -1.0328  0.3841
 4491UDC     C849398   3.170   7.591  11.204 -0.5964 -0.1923  0.3834
 4491UDC     C949399   3.202   7.474  11.308 -0.6770  0.1224 -0.8953
 4491UDC    C1049400   3.103   7.358  11.295 -1.1884  0.9294 -0.6831
 4491UDC    C1149401   3.166   7.224  11.352  0.3784 -1.1870  0.3174
 4492UDC     C149402  16.775   1.641   1.157  0.0812 -0.0427 -0.1757
 4492UDC     C249403  16.651   1.710   1.095  1.1884  0.4443 -0.3934
 4492UDC     C349404  16.675   1.854   1.062  0.0155 -0.3986  0.5546
 4492UDC     C449405  16.532   1.915   1.046 -0.3773 -0.6143 -0.3491
 4492UDC     C549406  16.440   1.905   1.165 -1.1704 -0.0945  0.1355
 4492UDC     C649407  16.297   1.917   1.115 -0.4831 -0.0319 -0.3062
 4492UDC     C749408  16.189   1.941   1.223  1.2751 -0.7439  0.6104
 4492UDC     C849409  16.036   1.928   1.182  0.6755  0.0650 -0.4555
 4492UDC     C949410  15.948   1.938   1.298  0.5881  0.4179 -1.4567
 4492UDC    C1049411  15.801   1.962   1.281 -0.0398  0.4302  0.0975
 4492UDC    C1149412  15.701   1.954   1.397  0.1509 -0.8915  0.1504
 4493UDC     C149413   5.356  10.593   3.289 -0.3465  0.9807 -0.3552
 4493UDC     C249414   5.328  10.488   3.401 -0.0794  0.1489 -0.1035
 4493UDC     C349415   5.405  10.517   3.530 -0.9999  0.5987 -0.0630
 4493UDC     C449416   5.558  10.533   3.527 -0.6675  0.3013 -0.0001
 4493UDC     C549417   5.622  10.618   3.637  1.1600 -0.7913  0.2808
 4493UDC     C649418   5.640  10.768   3.607 -1.0437  0.4259  1.4429
 4493UDC     C749419   5.710  10.823   3.735  0.9749  0.7337 -0.5569
 4493UDC     C849420   5.731  10.972   3.729 -0.8777  0.5389 -0.5172
 4493UDC     C949421   5.830  11.006   3.836  0.0493 -0.8588  0.8672
 4493UDC    C1049422   5.790  11.145   3.895  0.2705 -0.1555 -0.6251
 4493UDC    C1149423   5.864  11.174   4.031 -0.1367 -0.2659  0.2788
 4494UDC     C149424   2.169  19.694  17.148  0.5268  0.9837  0.5075
 4494UDC     C249425   2.049  19.762  17.087  0.5141 -0.0054 -0.4307
 4494UDC     C349426   1.916  19.752  17.173  0.2516  0.7200  0.0073
 4494UDC     C449427   1.832  19.621  17.161  0.4086  0.0759  0.3332
 4494UDC     C549428   1.706  19.646  17.248  1.1627 -1.9298  0.2867
 4494UDC     C649429   1.608  19.737  17.168  0.2081  0.1158  0.4383
 4494UDC     C749430   1.502  19.659  17.084 -0.1223  0.4245  1.1935
 4494UDC     C849431   1.371  19.619  17.156 -0.0914 -0.6825 -0.3040
 4494UDC     C949432   1.274  19.731  17.199 -0.3871 -0.4563  0.4266
 4494UDC    C1049433   1.129  19.697  17.215 -0.4277  0.3545 -0.2603
 4494UDC    C1149434   1.108  19.579  17.321  0.0661 -0.4859  0.4575
 4495UDC     C149435   3.552   3.028  16.266 -0.1459 -0.2164 -0.4477
 4495UDC     C249436   3.631   3.161  16.249 -0.0907  0.0652 -0.7431
 4495UDC     C349437   3.744   3.145  16.146 -0.3519 -1.0052 -0.3040
 4495UDC     C449438   3.689   3.093  16.010 -0.2721  0.7278 -0.3945
 4495UDC     C549439   3.806   3.048  15.924  0.5995  0.5798 -0.7509
 4495UDC     C649440   3.882   3.144  15.831 -0.2394 -1.3784 -1.6201
 4495UDC     C749441   3.813   3.227  15.726  0.2579 -0.4166  0.7930
 4495UDC     C849442   3.925   3.296  15.636  0.4929  1.4277 -1.2039
 4495UDC     C949443   3.871   3.426  15.576 -0.8196  0.0539 -0.4243
 4495UDC    C1049444   3.981   3.505  15.519  0.0224 -0.1099 -1.0137
 4495UDC    C1149445   3.912   3.634  15.479  0.6210 -0.2397 -0.0781
 4496UDC     C149446  19.363   6.274   6.771  0.9109  0.4460 -0.0430
 4496UDC     C249447  19.214   6.252   6.825  0.2759 -0.6964 -0.2378
 4496UDC     C349448  19.154   6.340   6.935  0.6131  0.2671  0.2173
 4496UDC     C449449  19.230   6.335   7.067 -1.6854  0.2877 -0.8206
 4496UDC     C549450  19.135   6.326   7.192 -0.4241  0.7853 -0.4524
 4496UDC     C649451  18.977   6.336   7.185 -0.0447 -0.1926  0.2514
 4496UDC     C749452  18.920   6.315   7.323  0.5250 -0.1237 -0.5998
 4496UDC     C849453  18.847   6.440   7.377  0.2680 -0.6157 -0.0026
 4496UDC     C949454  18.799   6.422   7.522 -0.1413 -0.5995  1.9366
 4496UDC    C1049455  18.786   6.275   7.556 -1.0576 -0.0259 -0.8142
 4496UDC    C1149456  18.690   6.233   7.671 -0.4097  0.2935 -0.5729
 4497UDC     C149457   3.791  11.099   0.392 -0.5824 -0.7199  0.8022
 4497UDC     C249458   3.749  11.034   0.523 -0.8135 -0.0432  0.4065
 4497UDC     C349459   3.595  10.988   0.514  0.0730 -0.3258  0.3547
 4497UDC     C449460   3.506  11.121   0.531 -0.0001  0.9701 -0.1971
 4497UDC     C549461   3.365  11.116   0.472 -0.3978  0.2796 -0.2830
 4497UDC     C649462   3.254  11.217   0.518  0.0197 -0.0720 -0.0480
 4497UDC     C749463   3.132  11.235   0.416 -0.0141  0.1501 -0.6509
 4497UDC     C849464   2.998  11.307   0.461 -0.7021 -0.0914  0.3064
 4497UDC     C949465   3.011  11.464   0.466  0.4627  0.5189  0.1115
 4497UDC    C1049466   3.015  11.517   0.602  0.5495  0.7073 -0.5958
 4497UDC    C1149467   3.125  11.625   0.610 -1.4713  0.3584  0.3026
 4498UDC     C149468   6.091   2.414  10.152  0.8838 -0.7479  0.6936
 4498UDC     C249469   6.245   2.447  10.125  0.5719 -0.0791 -0.6323
 4498UDC     C349470   6.322   2.521  10.242 -0.8434  0.8178  0.4919
 4498UDC     C449471   6.283   2.476  10.384 -1.0681 -0.6690 -0.1127
 4498UDC     C549472   6.349   2.576  10.480 -0.1486  0.1662  0.5999
 4498UDC     C649473   6.336   2.732  10.468 -0.9557  0.3323 -0.2643
 4498UDC     C749474   6.386   2.796  10.595 -0.1044  0.1677 -0.8332
 4498UDC     C849475   6.541   2.803  10.592 -0.5557  0.2043  0.5126
 4498UDC     C949476   6.630   2.850  10.718  0.6573 -0.3193  1.1276
 4498UDC    C1049477   6.776   2.849  10.687  0.2382 -0.5112  0.2671
 4498UDC    C1149478   6.867   2.906  10.802 -0.4561  0.4946  0.6824
 4499UDC     C149479  13.032   4.444  14.924  0.2205 -0.4976  0.3281
 4499UDC     C249480  13.095   4.321  14.989 -0.1053 -0.0825 -1.0719
 4499UDC     C349481  13.161   4.349  15.127 -0.3862 -1.0604 -0.0385
 4499UDC     C449482  13.070   4.426  15.229  0.2452  0.0189 -0.1266
 4499UDC     C549483  13.121   4.395  15.377 -0.7497 -0.8817 -0.6461
 4499UDC     C649484  13.045   4.447  15.501  0.3308  1.2214  0.1386
 4499UDC     C749485  12.913   4.368  15.499 -0.1798 -0.0305  0.5208
 4499UDC     C849486  12.815   4.447  15.585 -1.4710 -0.3412 -0.2944
 4499UDC     C949487  12.867   4.479  15.727  0.2754  1.8199  0.4677
 4499UDC    C1049488  12.812   4.609  15.784  1.1094 -0.4608 -0.3077
 4499UDC    C1149489  12.670   4.615  15.845 -1.4068 -0.4019 -0.3388
 4500UDC     C149490   2.648  11.672  17.031  0.6594 -0.1406 -0.3228
 4500UDC     C249491   2.787  11.661  17.096 -0.0359  0.3570  0.2327
 4500UDC     C349492   2.805  11.543  17.190 -0.3621  0.2535  0.0722
 4500UDC     C449493   2.946  11.549  17.261  1.3152  0.5106 -0.1356
 4500UDC     C549494   2.974  11.469  17.391 -0.4521  0.0716  1.2304
 4500UDC     C649495   2.974  11.566  17.504 -0.7653 -0.1861 -0.4352
 4500UDC     C749496   2.956  11.545  17.651  0.0045 -0.5708 -1.2137
 4500UDC     C849497   3.064  11.466  17.728  0.0861 -0.4301 -0.7355
 4500UDC     C949498   3.199  11.542  17.714  0.1012  0.7190  0.1682
 4500UDC    C1049499   3.293  11.530  17.590 -0.1237 -0.9749  0.1674
 4500UDC    C1149500   3.414  11.630  17.611 -0.8930 -0.9651 -0.7705
 4501UDC     C149501   2.412  18.818  12.821  0.8819  0.0199  1.0913
 4501UDC     C249502   2.324  18.801  12.697 -0.2094 -0.4316  0.0436
 4501UDC     C349503   2.266  18.936  12.647 -0.4448  0.3290 -0.3618
 4501UDC     C449504   2.356  19.003  12.547 -0.7630  0.8998 -0.4489
 4501UDC     C549505   2.334  19.108  12.444 -1.2493 -0.8094 -0.6378
 4501UDC     C649506   2.387  19.042  12.310 -0.8785  0.5251 -0.0885
 4501UDC     C749507   2.317  19.125  12.208 -1.2192 -0.0988 -0.2868
 4501UDC     C849508   2.345  19.087  12.062  0.2641  2.0345  0.0521
 4501UDC     C949509   2.486  19.129  12.035  0.0627 -0.5108 -0.5128
 4501UDC    C1049510   2.512  19.162  11.884 -0.3170 -0.5997 -1.0277
 4501UDC    C1149511   2.560  19.033  11.826 -0.0054  1.1722 -0.9319
 4502UDC     C149512   4.526  17.188   7.056 -0.3460 -0.4843 -1.0163
 4502UDC     C249513   4.580  17.300   7.148 -0.5566 -0.7912  0.9728
 4502UDC     C349514   4.485  17.361   7.251  0.9115 -0.0548  0.7514
 4502UDC     C449515   4.520  17.498   7.296  0.1891 -0.6710  0.3979
 4502UDC     C549516   4.526  17.617   7.194  0.4180  0.0139 -0.2574
 4502UDC     C649517   4.571  17.748   7.265  0.1947  0.1224 -1.2239
 4502UDC     C749518   4.709  17.740   7.333  0.8625 -0.2259  0.8643
 4502UDC     C849519   4.806  17.798   7.228  0.4200  1.0604 -0.7870
 4502UDC     C949520   4.792  17.933   7.162  0.5883 -0.3753  0.2624
 4502UDC    C1049521   4.834  18.075   7.206  0.1407  1.2407  0.1198
 4502UDC    C1149522   4.704  18.167   7.176 -0.1894  0.2058  1.1777
 4503UDC     C149523  18.312   2.059   2.678  1.9234 -0.2643  0.7952
 4503UDC     C249524  18.209   2.083   2.791 -0.6996  0.8520  0.7860
 4503UDC     C349525  18.221   2.219   2.855 -1.0103 -0.3191  1.4760
 4503UDC     C449526  18.083   2.231   2.923 -1.2386  0.3716  0.0381
 4503UDC     C549527  18.076   2.357   3.006 -0.0718  0.9376 -0.8105
 4503UDC     C649528  17.937   2.398   3.066  0.3676  0.0580  1.1333
 4503UDC     C749529  17.920   2.531   3.149  0.6878 -0.1648 -0.4447
 4503UDC     C849530  17.771   2.558   3.185  0.0158  0.6588  0.6526
 4503UDC     C949531  17.684   2.672   3.124  0.7897  0.9823 -0.3178
 4503UDC    C1049532  17.543   2.615   3.122  1.3694  0.5214 -0.0401
 4503UDC    C1149533  17.465   2.636   3.251  1.1931  0.5066 -0.6885
 4504UDC     C149534   2.434   8.375  10.771 -0.3468 -0.0494  0.5289
 4504UDC     C249535   2.458   8.528  10.749 -0.1015 -0.8447 -0.0313
 4504UDC     C349536   2.518   8.598  10.867  0.3486  0.1713  0.0982
 4504UDC     C449537   2.583   8.732  10.834  0.1266 -0.5159  0.4302
 4504UDC     C549538   2.628   8.809  10.962  0.5369  0.2935  0.0962
 4504UDC     C649539   2.769   8.781  11.016 -0.7470 -0.3921  0.1658
 4504UDC     C749540   2.827   8.645  11.055  0.7241 -0.4579 -0.2418
 4504UDC     C849541   2.858   8.542  10.950 -1.2194 -1.3137 -0.4650
 4504UDC     C949542   2.948   8.598  10.833  1.0013 -0.7157 -1.4275
 4504UDC    C1049543   2.993   8.477  10.746 -0.0501  0.2982 -0.3403
 4504UDC    C1149544   2.928   8.343  10.794 -0.7354 -0.0575  0.9160
 4505UDC     C149545  10.327  16.885   2.098  0.9346 -0.4078  0.7795
 4505UDC     C249546  10.421  16.867   2.216 -0.4576 -0.4786 -0.5978
 4505UDC     C349547  10.556  16.938   2.191 -0.3549  0.7566  0.4756
 4505UDC     C449548  10.651  16.873   2.080 -1.1600  1.4356  0.6193
 4505UDC     C549549  10.744  16.763   2.136  1.0288  0.6853  0.3937
 4505UDC     C649550  10.828  16.689   2.028 -0.4280 -0.7722  0.5876
 4505UDC     C749551  10.965  16.650   2.077  0.6944  0.4871  0.1064
 4505UDC     C849552  11.069  16.639   1.972 -0.3920  0.0937  0.6919
 4505UDC     C949553  11.163  16.526   2.022  0.0776 -0.0650  0.4725
 4505UDC    C1049554  11.263  16.461   1.918  0.0222 -0.2619 -0.1415
 4505UDC    C1149555  11.341  16.337   1.968 -0.4013 -0.9247  0.1376
 4506UDC     C149556  17.242   3.295  13.549 -1.4892  0.9015 -0.2624
 4506UDC     C249557  17.381   3.364  13.530  1.2015  0.0818 -0.5951
 4506UDC     C349558  17.488   3.249  13.539  0.0806  0.7916 -0.2187
 4506UDC     C449559  17.498   3.159  13.413  1.5055  0.0269 -0.2294
 4506UDC     C549560  17.593   3.036  13.428  1.2282  0.8247  0.7278
 4506UDC     C649561  17.743   3.078  13.443  0.3500  0.3472 -0.2472
 4506UDC     C749562  17.834   2.975  13.515 -0.0185 -0.3285 -0.2214
 4506UDC     C849563  17.984   3.007  13.546 -0.6402 -0.2847 -0.7939
 4506UDC     C949564  17.991   3.112  13.660  0.1602 -0.2862  0.6313
 4506UDC    C1049565  18.126   3.163  13.709 -0.6655 -1.4283  0.3008
 4506UDC    C1149566  18.091   3.284  13.798 -0.8227  0.9430 -0.6085
 4507UDC     C149567  17.740   2.560  11.312 -0.6814 -0.2754 -0.6351
 4507UDC     C249568  17.643   2.590  11.425 -0.0714 -0.3462  0.5207
 4507UDC     C349569  17.677   2.701  11.513 -0.2726  0.4182 -0.0841
 4507UDC     C449570  17.562   2.705  11.607  0.7127 -0.5214 -0.7738
 4507UDC     C549571  17.504   2.847  11.655 -0.4574 -0.8792  0.8029
 4507UDC     C649572  17.359   2.859  11.694  0.2958 -0.4494 -0.8493
 4507UDC     C749573  17.297   2.994  11.745 -0.6723  0.9959 -0.4222
 4507UDC     C849574  17.190   3.053  11.653 -1.3147  0.0975 -0.2063
 4507UDC     C949575  17.272   3.133  11.548  0.2379  0.3769 -0.1030
 4507UDC    C1049576  17.347   3.256  11.608  0.4597 -0.1665 -0.2189
 4507UDC    C1149577  17.251   3.365  11.650  0.0549  1.2485  0.1154
 4508UDC     C149578  14.823  10.250   1.621 -0.9749  0.6539 -0.3745
 4508UDC     C249579  14.670  10.264   1.648  0.3089  0.1779  0.5560
 4508UDC     C349580  14.661  10.401   1.718  0.2070  0.8156 -0.4261
 4508UDC     C449581  14.784  10.424   1.802 -1.2200 -0.3922 -0.1945
 4508UDC     C549582  14.815  10.569   1.856 -1.2808  0.6737  0.0005
 4508UDC     C649583  14.911  10.667   1.785  0.4322  0.6236  0.1612
 4508UDC     C749584  15.047  10.601   1.748  0.7443 -0.0808 -0.5307
 4508UDC     C849585  15.143  10.712   1.711 -0.7865 -0.7991  0.2131
 4508UDC     C949586  15.142  10.821   1.819 -0.2734 -0.1595  0.0035
 4508UDC    C1049587  15.233  10.946   1.816  0.8104  0.0856  0.3323
 4508UDC    C1149588  15.131  11.052   1.765 -0.4635  0.2072 -0.4095
 4509UDC     C149589  10.395  14.262   9.235  0.4133  0.3827  0.6450
 4509UDC     C249590  10.246  14.281   9.248 -0.3639 -0.6009 -0.2574
 4509UDC     C349591  10.169  14.152   9.209  0.3283  0.1716  0.1169
 4509UDC     C449592  10.019  14.178   9.182  0.3059 -0.3140 -0.4756
 4509UDC     C549593   9.943  14.055   9.126 -0.5436  0.2237 -1.2905
 4509UDC     C649594   9.970  13.939   9.223  1.2409 -0.1200 -0.3869
 4509UDC     C749595   9.895  13.795   9.210  0.0595  0.1319  0.4653
 4509UDC     C849596   9.957  13.713   9.098 -0.6071 -0.8491 -1.0769
 4509UDC     C949597   9.920  13.568   9.075 -0.2783 -0.3367 -0.8083
 4509UDC    C1049598   9.980  13.469   9.175 -0.8568 -0.0681  0.2609
 4509UDC    C1149599   9.951  13.474   9.330  0.7191  0.0160  1.3616
 4510UDC     C149600   7.667  13.470   6.731 -0.9157 -0.2396  0.4750
 4510UDC     C249601   7.639  13.402   6.859 -0.4161  0.1378 -0.2701
 4510UDC     C349602   7.765  13.429   6.949 -0.3597 -0.9999  0.1651
 4510UDC     C449603   7.695  13.458   7.085 -1.8460 -0.7238  1.0172
 4510UDC     C549604   7.723  13.592   7.150 -0.3256  0.4788 -0.6577
 4510UDC     C649605   7.662  13.603   7.288 -0.0709 -0.0354 -0.6394
 4510UDC     C749606   7.706  13.727   7.365 -0.0268 -0.9542  0.1310
 4510UDC     C849607   7.677  13.732   7.510 -0.5941  0.6521  0.5753
 4510UDC     C949608   7.766  13.629   7.590  0.3454  0.2830  0.1857
 4510UDC    C1049609   7.721  13.603   7.736  0.0162 -0.1178  0.2289
 4510UDC    C1149610   7.771  13.715   7.828  0.4995  0.4629 -0.8799
 4511UDC     C149611  13.647   1.427   5.964 -0.2362 -1.0080  0.9724
 4511UDC     C249612  13.664   1.499   5.823 -0.8940  0.7311 -0.1271
 4511UDC     C349613  13.807   1.501   5.760  0.4151  0.4322 -0.9704
 4511UDC     C449614  13.821   1.592   5.635 -0.6425  0.6180  0.2107
 4511UDC     C549615  13.956   1.667   5.609 -1.5237  0.3912 -0.2516
 4511UDC     C649616  13.996   1.777   5.714  0.9103  0.0931  0.3149
 4511UDC     C749617  13.923   1.907   5.735  0.4393 -0.6204 -0.7847
 4511UDC     C849618  13.926   2.024   5.634  0.0121  0.5863  0.2984
 4511UDC     C949619  13.858   2.154   5.642 -1.1284 -1.2031 -0.4876
 4511UDC    C1049620  13.919   2.262   5.554  0.1702  0.6251  0.7124
 4511UDC    C1149621  13.824   2.381   5.542  0.6498 -0.1709 -0.8231
 4512UDC     C149622  19.187  11.038   0.763 -0.0618 -0.5064 -1.9655
 4512UDC     C249623  19.050  10.982   0.722 -0.5650  0.4200 -0.4003
 4512UDC     C349624  18.927  11.074   0.735 -0.0524  0.0734  0.2923
 4512UDC     C449625  18.911  11.126   0.879  0.0276  0.4537  0.9807
 4512UDC     C549626  18.838  11.256   0.919  0.9452 -0.5738 -0.9514
 4512UDC     C649627  18.884  11.300   1.058 -0.9795 -0.0645 -0.5769
 4512UDC     C749628  18.779  11.349   1.156  0.0090  0.0134  0.1082
 4512UDC     C849629  18.822  11.391   1.302  0.5158 -0.5191  0.2202
 4512UDC     C949630  18.847  11.543   1.311  0.0567  0.0598 -0.8955
 4512UDC    C1049631  18.894  11.575   1.455 -0.3027  1.5920 -0.5494
 4512UDC    C1149632  18.799  11.547   1.574 -1.0577  0.2964  0.0834
 4513UDC     C149633   8.136  12.271   1.624 -1.5578  0.5515 -0.9458
 4513UDC     C249634   8.084  12.138   1.691  0.2846  0.2586  0.3674
 4513UDC     C349635   8.192  12.023   1.702 -0.3891 -0.2083  0.0590
 4513UDC     C449636   8.137  11.893   1.761 -1.5425 -0.4572  0.6841
 4513UDC     C549637   8.216  11.851   1.879 -0.8466  0.0157  0.6745
 4513UDC     C649638   8.166  11.912   2.005 -1.3405  0.2088  0.7636
 4513UDC     C749639   8.274  11.918   2.108 -0.4288 -0.3588 -0.3522
 4513UDC     C849640   8.258  12.048   2.195 -0.6251  0.8776  0.5544
 4513UDC     C949641   8.301  12.176   2.127 -0.6934  0.3299  0.1172
 4513UDC    C1049642   8.349  12.272   2.239  0.8535 -0.6348 -0.4560
 4513UDC    C1149643   8.397  12.413   2.184 -0.2876 -0.5367  1.2113
 4514UDC     C149644  13.572   8.778   0.691  0.1216 -0.0301  0.6154
 4514UDC     C249645  13.640   8.740   0.827  0.1068  0.1994  0.2814
 4514UDC     C349646  13.668   8.595   0.860 -0.5325 -0.5407  0.0042
 4514UDC     C449647  13.562   8.533   0.954  0.4632 -0.2222  0.4300
 4514UDC     C549648  13.531   8.382   0.905 -0.1628  0.4696 -0.3356
 4514UDC     C649649  13.485   8.289   1.019  1.3219 -0.5505  0.2825
 4514UDC     C749650  13.399   8.170   0.984 -0.2975  0.6204  0.6535
 4514UDC     C849651  13.477   8.085   0.886  0.4992 -0.2902 -0.1989
 4514UDC     C949652  13.416   7.944   0.861  0.5686 -1.0296  0.5012
 4514UDC    C1049653  13.489   7.822   0.906 -0.5287 -0.3665 -0.8036
 4514UDC    C1149654  13.401   7.700   0.944  0.1294 -0.0561 -0.2648
 4515UDC     C149655   8.213   4.590  13.549 -0.4160 -0.7300 -0.1254
 4515UDC     C249656   8.297   4.570  13.680  0.2918  0.4796  0.0838
 4515UDC     C349657   8.232   4.578  13.816  1.0093  0.8854  0.0842
 4515UDC     C449658   8.337   4.567  13.929 -0.3183 -1.0916 -0.8491
 4515UDC     C549659   8.303   4.648  14.062 -0.2133  0.3110  0.0601
 4515UDC     C649660   8.180   4.585  14.135 -0.0235  0.8085  1.1139
 4515UDC     C749661   8.209   4.445  14.185 -1.2915  1.0964 -0.0903
 4515UDC     C849662   8.195   4.424  14.341  0.1536 -0.1878 -0.1134
 4515UDC     C949663   8.324   4.432  14.415 -0.0634  0.1064  0.0812
 4515UDC    C1049664   8.342   4.543  14.519  0.6890 -0.0203 -0.6886
 4515UDC    C1149665   8.274   4.497  14.645  0.4516  0.4030  0.3891
 4516UDC     C149666  14.018   3.616  13.703  0.2508 -0.0692 -0.0992
 4516UDC     C249667  13.949   3.555  13.829 -0.2246  0.5539 -0.2573
 4516UDC     C349668  13.973   3.624  13.962 -0.4426  0.0264  0.8756
 4516UDC     C449669  13.863   3.625  14.075  0.4563  0.7908 -0.1426
 4516UDC     C549670  13.894   3.726  14.187  0.5641  0.8764 -0.8534
 4516UDC     C649671  14.043   3.731  14.174 -0.7137 -0.1133 -0.0743
 4516UDC     C749672  14.094   3.866  14.233 -0.4132 -0.5618 -0.7905
 4516UDC     C849673  14.201   3.841  14.346 -0.3765  0.4444  0.4173
 4516UDC     C949674  14.264   3.952  14.420  0.1526 -0.1781  0.0452
 4516UDC    C1049675  14.393   3.911  14.502  0.5413  0.0143 -0.2584
 4516UDC    C1149676  14.508   3.900  14.404  0.0656  0.9586 -0.2305
 4517UDC     C149677  15.216   5.854  10.542 -0.5078  0.3668  0.2049
 4517UDC     C249678  15.221   5.993  10.600 -0.4974  0.7140  0.0138
 4517UDC     C349679  15.104   6.021  10.704 -0.6799  0.7083  0.0634
 4517UDC     C449680  15.083   6.168  10.746  0.2864 -0.1772 -0.7911
 4517UDC     C549681  15.208   6.229  10.820  0.4132 -0.5226  0.0077
 4517UDC     C649682  15.181   6.353  10.909 -0.1351  0.9122 -0.1101
 4517UDC     C749683  15.109   6.475  10.839 -0.7142  0.2302  0.6790
 4517UDC     C849684  15.098   6.594  10.933 -0.5936  0.2253  0.7728
 4517UDC     C949685  14.983   6.691  10.896 -0.0554  0.0250 -0.0354
 4517UDC    C1049686  14.957   6.784  11.013 -0.1330 -0.1578  0.1674
 4517UDC    C1149687  14.831   6.864  10.995 -0.0313 -0.8151  1.1983
 4518UDC     C149688   6.992  17.936   6.941  0.9247  1.2500 -1.0929
 4518UDC     C249689   6.859  17.987   7.003  0.8744  0.3765  0.5852
 4518UDC     C349690   6.749  17.884   7.042 -0.1213  0.8994 -0.1726
 4518UDC     C449691   6.727  17.769   6.939 -0.7811  1.1041  0.0562
 4518UDC     C549692   6.595  17.682   6.964  0.6015 -0.0165  0.2214
 4518UDC     C649693   6.510  17.640   6.844  0.3110  1.1347  0.3857
 4518UDC     C749694   6.359  17.671   6.864 -0.5590  0.4704  0.2351
 4518UDC     C849695   6.297  17.785   6.775  0.4851  0.3280  0.1623
 4518UDC     C949696   6.162  17.821   6.833 -0.3938 -1.2212  0.3728
 4518UDC    C1049697   6.171  17.969   6.870  0.3955 -0.1074 -0.4416
 4518UDC    C1149698   6.114  17.995   7.009 -0.0959  0.6611 -0.2540
 4519UDC     C149699   0.386   0.397  14.172 -0.4879  0.1365  0.3024
 4519UDC     C249700   0.444   0.384  14.312  0.0192 -0.6835 -0.2566
 4519UDC     C349701   0.544   0.489  14.356  0.8617  0.2001 -0.0624
 4519UDC     C449702   0.570   0.487  14.505 -1.1143  0.2633  0.2730
 4519UDC     C549703   0.578   0.350  14.576 -1.5780 -0.3566  0.6033
 4519UDC     C649704   0.571   0.349  14.731  0.0351 -0.3167 -0.4104
 4519UDC     C749705   0.684   0.432  14.791  0.0539  0.9226 -0.8894
 4519UDC     C849706   0.822   0.373  14.760 -0.6821  0.3968  0.2439
 4519UDC     C949707   0.864   0.243  14.838  0.6537  0.0812 -0.0927
 4519UDC    C1049708   0.966   0.165  14.762 -0.3750  0.0056  1.0736
 4519UDC    C1149709   0.928   0.015  14.743  1.7768  0.3868  1.1205
 4520UDC     C149710   1.196   1.981  10.665  0.4663 -0.3555  0.1253
 4520UDC     C249711   1.225   2.077  10.557  0.9888 -0.2945  0.2327
 4520UDC     C349712   1.181   2.020  10.418 -0.7501  0.6570 -1.6155
 4520UDC     C449713   1.241   2.097  10.297 -1.0748  0.6924 -0.3105
 4520UDC     C549714   1.380   2.046  10.247  0.6721 -0.0047  0.8660
 4520UDC     C649715   1.403   2.043  10.092  0.1618 -0.5048 -0.3991
 4520UDC     C749716   1.273   1.995  10.021  0.3286  0.5572  0.7932
 4520UDC     C849717   1.307   1.952   9.882  0.2976  1.3600  0.7005
 4520UDC     C949718   1.401   1.832   9.875 -0.1914  0.4350 -0.7887
 4520UDC    C1049719   1.379   1.731   9.761 -0.0166 -0.9918  0.2957
 4520UDC    C1149720   1.262   1.635   9.777 -0.4244  0.0931 -0.2064
 4521UDC     C149721   2.412  19.865  14.762  0.0776 -0.9294  0.2013
 4521UDC     C249722   2.522  19.828  14.865 -0.2731 -1.3576 -0.4989
 4521UDC     C349723   2.601  19.720  14.802 -0.3440  0.6007  1.9240
 4521UDC     C449724   2.646  19.614  14.908  0.4382 -1.1304  1.0183
 4521UDC     C549725   2.710  19.499  14.839 -0.5704  1.2407 -0.8159
 4521UDC     C649726   2.721  19.380  14.935 -0.0987 -0.1732  0.5494
 4521UDC     C749727   2.674  19.251  14.857 -0.0153 -0.3140 -0.6836
 4521UDC     C849728   2.712  19.113  14.911 -0.3064 -0.2528 -0.5268
 4521UDC     C949729   2.657  19.002  14.837  0.9356 -0.7353 -0.8360
 4521UDC    C1049730   2.629  18.878  14.928  0.8477 -0.1439  0.3785
 4521UDC    C1149731   2.755  18.817  14.993  0.3090  0.2511 -0.5670
 4522UDC     C149732  12.832   9.237  16.278 -0.4180 -0.5758  1.0875
 4522UDC     C249733  12.857   9.350  16.169 -0.5043 -0.0773  0.3663
 4522UDC     C349734  12.718   9.378  16.094 -1.6851  1.0008  0.0790
 4522UDC     C449735  12.727   9.507  16.010 -1.1667 -0.3076 -0.2998
 4522UDC     C549736  12.601   9.551  15.936 -0.5914 -0.3726 -0.3561
 4522UDC     C649737  12.475   9.493  15.994  0.2545  0.1242  0.1205
 4522UDC     C749738  12.338   9.523  15.924 -0.9573  0.0598 -0.7131
 4522UDC     C849739  12.234   9.424  15.984  0.2058 -1.0908 -0.5294
 4522UDC     C949740  12.227   9.293  15.902  0.6772  0.7191  0.5562
 4522UDC    C1049741  12.147   9.194  15.986 -0.6318 -0.3783 -0.5953
 4522UDC    C1149742  12.085   9.077  15.912 -0.6388  0.2736  0.0528
 4523UDC     C149743  16.749  11.284   4.554  0.2268  0.6032 -0.4846
 4523UDC     C249744  16.779  11.260   4.706  0.3727 -0.6056 -0.4408
 4523UDC     C349745  16.826  11.112   4.716  0.0406 -0.4311  0.4825
 4523UDC     C449746  16.846  11.056   4.855  0.4200  0.2108  0.4020
 4523UDC     C549747  16.861  10.906   4.862 -1.4397  0.1283 -0.8431
 4523UDC     C649748  16.787  10.857   4.980  1.0321  0.2434 -1.4215
 4523UDC     C749749  16.707  10.719   4.972 -0.7080 -0.0783  0.3193
 4523UDC     C849750  16.591  10.724   4.868  0.4912  0.6519  1.0927
 4523UDC     C949751  16.533  10.599   4.798  0.5966 -0.2059  0.4722
 4523UDC    C1049752  16.622  10.509   4.712  0.6723  0.2305  0.0080
 4523UDC    C1149753  16.535  10.401   4.634 -0.0206 -1.1031 -0.1428
 4524UDC     C149754  13.316   7.850   1.953  0.5698  1.0507 -0.1024
 4524UDC     C249755  13.253   7.732   2.029 -0.1071 -0.0780  0.9406
 4524UDC     C349756  13.161   7.773   2.140  1.0528  0.9211 -0.0890
 4524UDC     C449757  13.104   7.658   2.236  0.4690 -0.2884  0.1283
 4524UDC     C549758  12.974   7.709   2.319 -1.0900  0.4839  0.0752
 4524UDC     C649759  12.968   7.655   2.462  0.1218  0.0930 -0.3702
 4524UDC     C749760  13.058   7.729   2.559 -0.8098  0.5478  0.1038
 4524UDC     C849761  13.201   7.683   2.562 -0.4374  0.1281  0.5653
 4524UDC     C949762  13.291   7.758   2.658  0.3690  0.0230  0.3594
 4524UDC    C1049763  13.241   7.754   2.796 -0.7578 -0.3068 -0.3815
 4524UDC    C1149764  13.325   7.655   2.871  0.4501  0.4709 -0.1533
 4525UDC     C149765   4.820   8.797  12.092 -0.3199 -0.2171 -0.2367
 4525UDC     C249766   4.906   8.769  12.211 -0.6318  0.0793 -0.1076
 4525UDC     C349767   4.961   8.898  12.272  0.4851  0.3539 -0.0704
 4525UDC     C449768   5.055   8.874  12.398 -0.2546 -0.6303 -0.2163
 4525UDC     C549769   4.971   8.884  12.532 -0.6666 -0.7239 -0.0506
 4525UDC     C649770   5.037   8.874  12.673  0.9022  0.4986  0.3129
 4525UDC     C749771   5.083   9.002  12.729 -0.4477 -0.6418 -0.0728
 4525UDC     C849772   5.193   9.067  12.650 -0.6288 -0.0141  0.9755
 4525UDC     C949773   5.296   9.157  12.731 -0.1043 -1.2845 -0.3234
 4525UDC    C1049774   5.356   9.067  12.847  0.1207  0.2684  0.1401
 4525UDC    C1149775   5.479   9.131  12.911 -0.5520  0.2425  0.0192
 4526UDC     C149776   3.812   2.249  12.013  0.9622 -0.2315  0.1914
 4526UDC     C249777   3.796   2.094  12.030  0.3408  0.1437 -0.8202
 4526UDC     C349778   3.695   2.022  11.937  0.4056 -0.7236  0.6227
 4526UDC     C449779   3.672   1.869  11.955  0.7366  0.3199 -0.4383
 4526UDC     C549780   3.597   1.819  11.833  0.3043  0.7799 -0.1366
 4526UDC     C649781   3.531   1.685  11.835  0.6715  0.6413  0.1630
 4526UDC     C749782   3.613   1.554  11.846 -0.7458  0.1281  0.7357
 4526UDC     C849783   3.521   1.437  11.889 -0.1022 -0.0817 -0.2229
 4526UDC     C949784   3.602   1.315  11.923 -0.7105 -0.2462 -0.1456
 4526UDC    C1049785   3.686   1.226  11.826 -0.5101 -0.2888  0.4601
 4526UDC    C1149786   3.798   1.141  11.879  0.9067 -0.1372 -0.0660
 4527UDC     C149787  18.074  17.184  17.294 -0.0279 -0.4014  0.4959
 4527UDC     C249788  18.035  17.085  17.175  0.0922 -0.3856 -0.7137
 4527UDC     C349789  18.026  17.140  17.029  0.0135  0.3276  0.4999
 4527UDC     C449790  18.017  17.027  16.929  0.0449 -1.3241  0.6763
 4527UDC     C549791  18.145  16.951  16.890  0.4694  1.5711 -0.0625
 4527UDC     C649792  18.138  16.795  16.860  0.2945 -0.6749  0.1424
 4527UDC     C749793  18.265  16.732  16.804 -0.6633 -0.1842 -0.5780
 4527UDC     C849794  18.306  16.786  16.662 -0.0975 -0.4706 -1.1225
 4527UDC     C949795  18.427  16.699  16.616  0.0655 -0.9843  0.2726
 4527UDC    C1049796  18.545  16.726  16.712  0.4326  0.3786  0.1264
 4527UDC    C1149797  18.678  16.651  16.696 -0.6202 -0.3163  1.1327
 4528UDC     C149798  13.273  18.329   7.824 -0.2071 -0.3955 -0.3331
 4528UDC     C249799  13.295  18.296   7.677 -0.2811 -0.5034 -0.9558
 4528UDC     C349800  13.392  18.394   7.620  0.7834  0.6047  0.3557
 4528UDC     C449801  13.400  18.538   7.679 -0.1171  0.5192  0.7096
 4528UDC     C549802  13.532  18.589   7.634  1.1982  0.0745  0.2938
 4528UDC     C649803  13.525  18.639   7.488  0.3208 -1.7670  0.9353
 4528UDC     C749804  13.420  18.750   7.486 -0.5384  0.1289  0.1254
 4528UDC     C849805  13.377  18.766   7.334  0.9195  0.1356 -0.1105
 4528UDC     C949806  13.321  18.909   7.304  0.5834  0.1336 -0.0198
 4528UDC    C1049807  13.231  18.917   7.179  0.9153 -0.2929  0.1870
 4528UDC    C1149808  13.298  18.945   7.048  0.0618  0.8397  0.1567
 4529UDC     C149809   5.348  11.771   1.370 -0.1749 -0.5744  0.9539
 4529UDC     C249810   5.231  11.877   1.367 -0.3286  0.0765 -0.8328
 4529UDC     C349811   5.100  11.815   1.415 -0.3990  0.8888  0.1675
 4529UDC     C449812   4.981  11.916   1.406  0.0567  0.9454 -1.2520
 4529UDC     C549813   4.857  11.856   1.480 -0.3270  0.5203  0.0610
 4529UDC     C649814   4.742  11.955   1.476  0.7045 -0.3381  0.6553
 4529UDC     C749815   4.630  11.922   1.582  1.5038 -0.9259 -0.8622
 4529UDC     C849816   4.484  11.908   1.521  0.2266  0.0716 -0.5118
 4529UDC     C949817   4.432  12.037   1.452  0.5953  0.1558 -0.6766
 4529UDC    C1049818   4.405  12.154   1.558 -0.3956  0.1081  0.4003
 4529UDC    C1149819   4.343  12.092   1.678 -0.3001  0.2391  0.2725
 4530UDC     C149820  15.476  15.221   0.666 -0.1001 -0.0551 -0.5458
 4530UDC     C249821  15.573  15.296   0.770  0.6276 -0.3587  0.6085
 4530UDC     C349822  15.489  15.365   0.877  0.3641 -0.5199 -1.9362
 4530UDC     C449823  15.473  15.508   0.822  0.5841  0.4995  0.9348
 4530UDC     C549824  15.596  15.598   0.783 -0.0591 -0.4650 -0.0818
 4530UDC     C649825  15.555  15.714   0.699  0.6837 -0.6569  0.5815
 4530UDC     C749826  15.523  15.693   0.554  0.0170 -0.3551  0.7702
 4530UDC     C849827  15.477  15.832   0.495  0.3728  0.2001  1.1947
 4530UDC     C949828  15.501  15.811   0.349  0.4284  0.6475  0.7760
 4530UDC    C1049829  15.426  15.909   0.258  0.5252 -0.0508  0.5994
 4530UDC    C1149830  15.516  16.001   0.174  0.5779  0.1909 -0.5543
 4531UDC     C149831  12.671  16.738  16.416  1.1546 -0.7974  0.8957
 4531UDC     C249832  12.621  16.794  16.277 -0.7735 -0.3743  0.1075
 4531UDC     C349833  12.547  16.697  16.180  0.7513  0.0931 -0.1325
 4531UDC     C449834  12.642  16.607  16.102 -1.1025  0.3619 -0.0938
 4531UDC     C549835  12.759  16.676  16.034 -0.3742 -0.3343  0.4744
 4531UDC     C649836  12.874  16.584  15.974  0.0473  0.5887 -1.2476
 4531UDC     C749837  12.958  16.496  16.077 -0.0608  0.4509 -0.6621
 4531UDC     C849838  13.040  16.384  16.006  0.0959  0.6303 -0.5949
 4531UDC     C949839  13.054  16.289  16.117 -0.7399 -0.5317 -0.4017
 4531UDC    C1049840  13.122  16.157  16.074 -0.1369  0.2385 -0.0880
 4531UDC    C1149841  13.019  16.041  16.082  0.5638  0.1490 -0.8126
 4532UDC     C149842   1.842  17.788   1.890 -0.2312  1.2300  0.3556
 4532UDC     C249843   1.802  17.638   1.867 -0.7284 -0.0856 -0.2664
 4532UDC     C349844   1.929  17.552   1.859 -0.0731  0.1770 -0.1539
 4532UDC     C449845   2.024  17.531   1.981  0.2354  0.1128  0.2971
 4532UDC     C549846   2.151  17.472   1.933  0.0300 -0.2513 -0.1466
 4532UDC     C649847   2.239  17.410   2.047 -0.0896 -1.0015  1.1076
 4532UDC     C749848   2.229  17.256   2.052 -0.8386  0.0669 -0.6775
 4532UDC     C849849   2.298  17.193   2.176  0.1288 -0.4326  0.6193
 4532UDC     C949850   2.257  17.045   2.181  0.3603  0.9038 -1.2408
 4532UDC    C1049851   2.119  17.035   2.257 -0.0300  0.6975 -0.2423
 4532UDC    C1149852   2.037  16.907   2.229  0.2945  0.5089 -0.0635
 4533UDC     C149853   9.132  14.011   5.634 -0.7234 -0.3745  0.4281
 4533UDC     C249854   9.087  13.866   5.604  1.0897  0.6060 -0.5454
 4533UDC     C349855   9.149  13.797   5.484 -0.0926 -0.0984  0.7939
 4533UDC     C449856   9.133  13.646   5.458  0.2855 -0.6009 -0.9376
 4533UDC     C549857   9.003  13.590   5.397  0.3207 -0.7745  0.5142
 4533UDC     C649858   8.882  13.547   5.480  0.4967  0.6071 -0.1593
 4533UDC     C749859   8.765  13.488   5.397  0.1263 -0.9770 -0.9169
 4533UDC     C849860   8.645  13.423   5.454 -1.5005  0.5521  0.1782
 4533UDC     C949861   8.540  13.382   5.354 -0.0511 -0.0114  0.3498
 4533UDC    C1049862   8.466  13.251   5.382 -1.5686  0.6172 -0.1949
 4533UDC    C1149863   8.371  13.192   5.276 -0.6017  0.1317  0.2882
 4534UDC     C149864  12.007   5.744   7.075  0.2839 -0.1704  0.0926
 4534UDC     C249865  11.983   5.775   7.227  0.0770 -0.1991  0.5676
 4534UDC     C349866  11.905   5.662   7.302 -0.9705  0.0198 -0.7895
 4534UDC     C449867  11.909   5.677   7.454  0.1163 -1.1485  0.6339
 4534UDC     C549868  12.045   5.661   7.518 -0.2323 -0.2271  0.9763
 4534UDC     C649869  12.041   5.693   7.666 -0.1300  0.1457  0.2418
 4534UDC     C749870  12.191   5.725   7.695  0.3209  0.5560 -0.5401
 4534UDC     C849871  12.242   5.804   7.571  0.1253  0.1489  0.2637
 4534UDC     C949872  12.382   5.872   7.540  0.2344  0.1033  0.3864
 4534UDC    C1049873  12.415   5.853   7.396  0.7261 -0.1125  0.6097
 4534UDC    C1149874  12.409   5.703   7.369 -0.2044 -0.1387  0.1167
 4535UDC     C149875  17.132  11.469  12.669  0.2629  0.6185  0.7460
 4535UDC     C249876  17.169  11.500  12.815  0.2626  0.1184  0.6455
 4535UDC     C349877  17.143  11.650  12.842  0.3101 -0.8184  0.3219
 4535UDC     C449878  17.182  11.701  12.973 -1.3348 -0.4631 -0.6358
 4535UDC     C549879  17.077  11.701  13.099 -1.1812 -0.4138  0.8229
 4535UDC     C649880  17.041  11.558  13.146 -0.5254 -0.6056  0.0073
 4535UDC     C749881  16.924  11.483  13.064  1.1189 -0.5841  0.2052
 4535UDC     C849882  16.825  11.423  13.170 -0.5390  0.0247  1.2532
 4535UDC     C949883  16.745  11.317  13.103 -0.0197 -0.1732 -0.1760
 4535UDC    C1049884  16.657  11.256  13.221 -0.4809  0.0465  0.3087
 4535UDC    C1149885  16.587  11.364  13.304  1.3713 -0.0844  0.6597
 4536UDC     C149886   2.085   2.621  18.347 -0.3371  0.1782 -0.5288
 4536UDC     C249887   2.186   2.608  18.221  0.6159  0.5755 -0.2431
 4536UDC     C349888   2.244   2.466  18.196  0.6670 -0.3444 -0.7008
 4536UDC     C449889   2.217   2.411  18.058 -0.6312 -0.7514  0.4811
 4536UDC     C549890   2.278   2.268  18.049 -0.0053  0.1734  0.6484
 4536UDC     C649891   2.387   2.264  18.149 -0.5352 -0.3991 -0.1298
 4536UDC     C749892   2.397   2.144  18.243 -0.0319 -0.0399 -0.3594
 4536UDC     C849893   2.442   2.022  18.159  0.1078 -0.1539  0.4282
 4536UDC     C949894   2.464   1.890  18.243  0.3491 -1.5050 -0.1694
 4536UDC    C1049895   2.446   1.758  18.176 -0.2989 -1.2178 -0.5614
 4536UDC    C1149896   2.485   1.636  18.256 -1.0549  0.2884  0.5145
 4537UDC     C149897   5.160  14.022  13.693  0.0204 -0.0122 -0.4859
 4537UDC     C249898   5.082  13.891  13.648  0.3852 -0.2462  0.4081
 4537UDC     C349899   5.049  13.894  13.491  0.2522 -0.0757 -0.2519
 4537UDC     C449900   4.993  13.759  13.433 -0.0420  0.0317  0.1837
 4537UDC     C549901   4.978  13.742  13.288  0.5557 -0.3028  1.0660
 4537UDC     C649902   4.898  13.627  13.232 -1.5085 -0.3513  1.3939
 4537UDC     C749903   4.885  13.610  13.078  1.4282  0.0480 -1.3833
 4537UDC     C849904   4.783  13.503  13.031 -1.1577 -0.7653 -0.2996
 4537UDC     C949905   4.801  13.472  12.888 -0.6919 -0.9533  1.3004
 4537UDC    C1049906   4.730  13.353  12.825 -0.6528 -0.5357 -0.0184
 4537UDC    C1149907   4.598  13.341  12.893 -0.2080 -0.1217 -0.3026
 4538UDC     C149908  15.772   8.231  16.960 -0.3633 -0.3764 -0.5747
 4538UDC     C249909  15.911   8.275  17.013  0.3653 -0.6098  0.0778
 4538UDC     C349910  15.914   8.303  17.158  0.6321  0.1293 -0.2872
 4538UDC     C449911  16.002   8.188  17.221  0.0136 -1.0949  0.5461
 4538UDC     C549912  16.011   8.175  17.373 -1.3143  0.9214  0.4275
 4538UDC     C649913  16.088   8.296  17.432  0.2873  0.8326 -0.5787
 4538UDC     C749914  16.241   8.314  17.423  0.0547  0.4492 -0.2871
 4538UDC     C849915  16.303   8.172  17.444 -0.3861  0.3966  0.6304
 4538UDC     C949916  16.447   8.166  17.385 -0.7720  0.3083  1.4624
 4538UDC    C1049917  16.444   8.088  17.256  1.3529 -0.6190  0.5594
 4538UDC    C1149918  16.571   8.011  17.210  0.7202  0.4018 -0.3003
 4539UDC     C149919  12.725  12.700  14.832  0.8419  0.1436  1.2366
 4539UDC     C249920  12.592  12.696  14.912 -0.2441 -0.0780 -0.3217
 4539UDC     C349921  12.471  12.631  14.839 -1.0157  0.4467 -0.2056
 4539UDC     C449922  12.453  12.668  14.690 -0.4278 -1.0033 -0.2539
 4539UDC     C549923  12.316  12.615  14.636  0.8896 -0.8589 -1.0500
 4539UDC     C649924  12.307  12.609  14.483  0.0212  0.0912 -0.3476
 4539UDC     C749925  12.178  12.638  14.411  1.2999  0.8851  0.0357
 4539UDC     C849926  12.200  12.600  14.262  0.4711  0.0281  0.4905
 4539UDC     C949927  12.200  12.449  14.219  0.5168  0.6468 -0.2888
 4539UDC    C1049928  12.197  12.436  14.060 -0.2011  0.3770 -0.1897
 4539UDC    C1149929  12.105  12.326  14.000  0.5539 -0.0948 -0.6224
 4540UDC     C149930   0.368   8.684   0.799 -0.4748 -0.6230  0.7052
 4540UDC     C249931   0.336   8.779   0.681  0.1653  0.5380  1.1579
 4540UDC     C349932   0.188   8.791   0.638  0.2896 -0.0257  1.1614
 4540UDC     C449933   0.159   8.718   0.506  0.0953 -0.3501 -0.1077
 4540UDC     C549934   0.005   8.709   0.509  1.6707  0.8070 -0.2433
 4540UDC     C649935  -0.062   8.629   0.400  0.0873 -0.0648 -0.2928
 4540UDC     C749936  -0.221   8.606   0.408 -0.1504  0.2062 -0.7955
 4540UDC     C849937  -0.290   8.605   0.554  0.0337 -0.7446  0.5640
 4540UDC     C949938  -0.440   8.578   0.571 -0.1887 -0.3539 -0.2145
 4540UDC    C1049939  -0.499   8.632   0.704 -0.0587 -0.4568 -0.2079
 4540UDC    C1149940  -0.654   8.662   0.712 -0.2265 -0.9874  0.9635
 4541UDC     C149941   4.971   1.257  12.807 -0.0150 -0.4452  0.2860
 4541UDC     C249942   4.885   1.392  12.786  0.6727  0.3420 -0.7131
 4541UDC     C349943   4.734   1.384  12.839 -0.4113 -0.5000  0.5760
 4541UDC     C449944   4.619   1.433  12.738  0.8725 -0.6162  0.0375
 4541UDC     C549945   4.647   1.575  12.679 -1.4280 -0.2650 -0.4836
 4541UDC     C649946   4.522   1.625  12.606  0.2050 -0.0106  0.3291
 4541UDC     C749947   4.552   1.714  12.481  0.0212  1.1558  0.3276
 4541UDC     C849948   4.670   1.803  12.509 -0.1408 -0.6150  0.6755
 4541UDC     C949949   4.701   1.905  12.400  0.2014 -0.7135 -0.2197
 4541UDC    C1049950   4.576   1.991  12.374  0.3791 -0.9428 -0.6026
 4541UDC    C1149951   4.614   2.139  12.374  0.6910  0.3577  1.0441
 4542UDC     C149952  16.958   9.665   2.854 -0.0933 -0.5803  1.0543
 4542UDC     C249953  16.849   9.624   2.954  0.5686  0.0930  0.3797
 4542UDC     C349954  16.837   9.474   2.977  0.2840  1.0112 -0.4398
 4542UDC     C449955  16.790   9.398   2.852 -2.6214  0.3857  1.0200
 4542UDC     C549956  16.642   9.422   2.826  0.5737  0.7581 -0.2859
 4542UDC     C649957  16.586   9.299   2.748 -0.5061  0.4898 -0.2833
 4542UDC     C749958  16.454   9.248   2.796  0.6265 -1.5028 -0.1850
 4542UDC     C849959  16.402   9.108   2.766  0.2410 -0.4869  1.4118
 4542UDC     C949960  16.487   8.994   2.808  1.1691  0.7176 -0.5076
 4542UDC    C1049961  16.460   8.856   2.741 -0.6823  0.3360 -0.0816
 4542UDC    C1149962  16.537   8.749   2.818 -0.2506 -0.1706  0.0634
 4543UDC     C149963  13.130  15.381   1.361  0.4585 -0.7369  0.6971
 4543UDC     C249964  13.146  15.424   1.509 -0.2706 -0.1124 -0.3149
 4543UDC     C349965  13.023  15.392   1.593  0.7630 -0.2019 -0.8376
 4543UDC     C449966  12.961  15.256   1.568  0.5848  0.2099  0.1008
 4543UDC     C549967  12.819  15.239   1.609  0.6180  1.0305  0.2276
 4543UDC     C649968  12.749  15.099   1.580  0.0195  0.1127  0.5095
 4543UDC     C749969  12.592  15.104   1.564 -0.2080  1.0322 -0.3063
 4543UDC     C849970  12.529  15.184   1.455  0.4741 -0.6692  1.0516
 4543UDC     C949971  12.515  15.321   1.523 -0.1288 -0.3334  0.2981
 4543UDC    C1049972  12.485  15.447   1.434 -0.3811  0.5584 -0.7669
 4543UDC    C1149973  12.444  15.581   1.506 -0.8817 -0.2396  0.7642
 4544UDC     C149974  16.184  19.819  11.054  0.2450 -0.0500  0.0012
 4544UDC     C249975  16.326  19.831  11.114 -0.6516  0.2666 -0.5406
 4544UDC     C349976  16.359  19.754  11.250  0.4915 -0.6016  0.4425
 4544UDC     C449977  16.310  19.784  11.391 -0.2281  0.2614 -0.7352
 4544UDC     C549978  16.305  19.668  11.485 -0.5942  0.6434  0.3412
 4544UDC     C649979  16.355  19.717  11.619  0.8294  0.8610  0.0842
 4544UDC     C749980  16.370  19.617  11.736  0.0298 -1.3556 -0.8440
 4544UDC     C849981  16.366  19.684  11.877  0.1278 -0.5614 -0.1074
 4544UDC     C949982  16.501  19.748  11.918  0.3071  0.9421  0.0159
 4544UDC    C1049983  16.478  19.815  12.053 -0.1845  0.2370  0.6525
 4544UDC    C1149984  16.599  19.886  12.107 -0.9106  0.0574 -0.0084
 4545UDC     C149985  17.377  15.528   5.753 -0.7496 -0.2652 -1.0444
 4545UDC     C249986  17.379  15.510   5.909 -0.2596 -0.2232  0.0801
 4545UDC     C349987  17.246  15.541   5.965  0.6567 -0.3100  0.3458
 4545UDC     C449988  17.146  15.442   5.911  0.3561  0.1623 -0.2701
 4545UDC     C549989  17.031  15.373   5.988 -0.5539  0.6559  0.4651
 4545UDC     C649990  16.905  15.329   5.914 -0.1120  0.5314 -0.2889
 4545UDC     C749991  16.856  15.433   5.815 -1.5526 -0.2295  0.6137
 4545UDC     C849992  16.752  15.536   5.860 -0.0474 -0.2770 -0.2799
 4545UDC     C949993  16.614  15.474   5.893 -0.9321  0.1834  0.3249
 4545UDC    C1049994  16.514  15.586   5.898 -1.2975 -0.8688  0.3459
 4545UDC    C1149995  16.368  15.562   5.872  0.9243 -0.0167  0.8062
 4546UDC     C149996  12.693   8.042   7.979  0.6485  0.3574 -0.5447
 4546UDC     C249997  12.766   8.178   7.983 -0.2080 -0.7646  0.2472
 4546UDC     C349998  12.778   8.255   7.849  0.3167  1.0666  0.1927
 4546UDC     C449999  12.775   8.410   7.852  0.0424 -0.0380  0.7934
 4546UDC     C550000  12.906   8.473   7.910 -0.9439 -0.0221  0.2136
 4546UDC     C650001  13.036   8.440   7.848 -0.5028 -0.7246 -0.2099
 4546UDC     C750002  13.059   8.491   7.703 -0.6737 -0.4764 -0.6806
 4546UDC     C850003  13.202   8.460   7.656  0.0134  0.4300 -0.7272
 4546UDC     C950004  13.214   8.436   7.511  0.0163  0.3940 -0.1591
 4546UDC    C1050005  13.157   8.295   7.488 -0.2750  0.7275 -0.2032
 4546UDC    C1150006  13.108   8.253   7.352 -0.1812 -0.1572  1.2054
 4547UDC     C150007   0.815  16.695  19.606 -0.7933 -0.2009  0.5349
 4547UDC     C250008   0.842  16.819  19.695 -0.2090  0.0732  1.2763
 4547UDC     C350009   0.978  16.816  19.760  0.7558  0.6712  0.0072
 4547UDC     C450010   1.032  16.933  19.838  0.7193  0.1169 -0.4512
 4547UDC     C550011   1.037  16.910  19.987  0.4352 -0.3622  0.2004
 4547UDC     C650012   1.006  17.036  20.060  0.4430 -1.2925 -0.0207
 4547UDC     C750013   1.095  17.062  20.185 -0.0799  0.2419  0.8177
 4547UDC     C850014   1.099  16.937  20.274  0.9879 -0.8894 -0.3230
 4547UDC     C950015   1.171  16.935  20.405 -0.5234  0.2931 -0.2663
 4547UDC    C1050016   1.119  16.839  20.513  1.3135 -0.1589  0.1820
 4547UDC    C1150017   1.215  16.816  20.624 -0.9634  0.0168  0.1486
 4548UDC     C150018  10.542  14.810  14.250  0.1814  0.8207  1.0313
 4548UDC     C250019  10.641  14.700  14.289  0.2286  0.8812 -0.7216
 4548UDC     C350020  10.583  14.605  14.392 -0.7998 -0.5435  0.2032
 4548UDC     C450021  10.657  14.630  14.528 -0.0519  0.1365 -0.1166
 4548UDC     C550022  10.744  14.508  14.575 -0.4147 -0.9063  0.2155
 4548UDC     C650023  10.694  14.360  14.539 -0.6978 -0.6873  0.3420
 4548UDC     C750024  10.785  14.264  14.466  0.7620 -1.3784 -0.0038
 4548UDC     C850025  10.720  14.134  14.426  0.3394 -0.4388  0.2876
 4548UDC     C950026  10.566  14.120  14.392 -0.3010  0.8965  0.0365
 4548UDC    C1050027  10.510  13.988  14.324  0.4676 -0.6241  0.6947
 4548UDC    C1150028  10.572  13.858  14.369  0.4104 -0.1110  0.1678
 4549UDC     C150029  16.475   5.867  10.281 -0.1265 -0.8272 -0.2919
 4549UDC     C250030  16.534   5.836  10.140  0.4796  0.0803 -0.4343
 4549UDC     C350031  16.620   5.961  10.097  1.3175  0.0812 -0.2204
 4549UDC     C450032  16.732   5.970  10.203 -1.5681 -0.1557  0.7606
 4549UDC     C550033  16.849   5.876  10.180  0.0466  0.2207  0.7887
 4549UDC     C650034  16.960   5.904  10.291 -1.1807  0.1574  0.0411
 4549UDC     C750035  17.042   5.776  10.324 -1.4846 -1.1710 -0.2462
 4549UDC     C850036  16.956   5.691  10.417 -0.6223  0.6538  0.4476
 4549UDC     C950037  17.034   5.565  10.473 -0.1383 -1.3962 -0.3931
 4549UDC    C1050038  16.939   5.457  10.529  0.1025  0.4641 -0.5176
 4549UDC    C1150039  17.003   5.331  10.579  0.6211 -0.2011 -0.3646
 4550UDC     C150040   8.446  11.177  13.496  0.0341 -0.0491  0.0846
 4550UDC     C250041   8.602  11.170  13.468 -0.3668 -0.0371 -1.5958
 4550UDC     C350042   8.685  11.300  13.439  0.0397 -0.4908  0.4094
 4550UDC     C450043   8.670  11.417  13.542  0.3075 -0.7471 -0.3977
 4550UDC     C550044   8.745  11.553  13.527  0.1649  0.5129  0.2661
 4550UDC     C650045   8.694  11.629  13.648 -0.4433  0.2438  0.3882
 4550UDC     C750046   8.790  11.749  13.662  0.5539  0.2865 -0.6298
 4550UDC     C850047   8.928  11.705  13.698  1.0167  0.5880 -0.4450
 4550UDC     C950048   9.008  11.826  13.736 -0.2670 -0.4221 -0.5357
 4550UDC    C1050049   9.135  11.799  13.811  0.0349  0.3311  0.1811
 4550UDC    C1150050   9.235  11.914  13.783  0.6682  0.1998 -0.8264
 4551UDC     C150051   0.815  14.933  17.880  1.0674 -0.0071 -0.4729
 4551UDC     C250052   0.724  14.803  17.871 -0.0580 -0.8692  0.4236
 4551UDC     C350053   0.582  14.808  17.817 -0.4219 -0.5144 -0.1568
 4551UDC     C450054   0.521  14.667  17.781 -0.4600  0.1499 -0.1437
 4551UDC     C550055   0.378  14.644  17.721 -0.2154 -0.3964  0.6961
 4551UDC     C650056   0.340  14.493  17.707  0.2028  0.0105  0.0829
 4551UDC     C750057   0.364  14.396  17.830 -0.7098 -0.9231 -0.0885
 4551UDC     C850058   0.365  14.247  17.817 -0.2663  0.4999  0.2440
 4551UDC     C950059   0.431  14.167  17.929 -0.4587 -0.7404  0.4039
 4551UDC    C1050060   0.579  14.202  17.947  0.1984 -0.4959 -0.9823
 4551UDC    C1150061   0.646  14.099  18.040  0.1536  1.9670  0.6976
 4552UDC     C150062  14.007  18.669   5.435 -0.3619 -0.7557  0.1002
 4552UDC     C250063  13.971  18.622   5.577  0.3178  0.8706 -0.4531
 4552UDC     C350064  13.841  18.658   5.649 -1.2467 -0.0878 -0.2478
 4552UDC     C450065  13.864  18.750   5.765 -0.0894  0.8038 -0.3870
 4552UDC     C550066  13.759  18.843   5.820 -0.3415  0.8621  0.0122
 4552UDC     C650067  13.783  18.885   5.974 -0.8270 -0.4247 -0.3699
 4552UDC     C750068  13.796  18.754   6.055 -0.0463  0.4496 -0.0052
 4552UDC     C850069  13.766  18.754   6.209 -0.3228 -0.5214 -0.1864
 4552UDC     C950070  13.813  18.887   6.270  0.9478  0.3357  0.9070
 4552UDC    C1050071  13.806  18.941   6.417 -0.7881  0.8513 -0.3230
 4552UDC    C1150072  13.910  18.897   6.524 -0.0587  0.1823  0.1755
 4553UDC     C150073   7.752  14.914   0.937 -0.4346  1.1094 -0.1242
 4553UDC     C250074   7.661  14.825   1.019  0.8945 -0.2305  0.8849
 4553UDC     C350075   7.739  14.813   1.153 -0.4470 -0.1040 -0.1808
 4553UDC     C450076   7.788  14.941   1.219  0.0027 -0.3753 -1.1144
 4553UDC     C550077   7.895  14.915   1.330  0.6470 -0.1237 -1.2647
 4553UDC     C650078   8.042  14.880   1.292 -0.4272  0.5565  0.1192
 4553UDC     C750079   8.146  14.996   1.279 -0.0372  0.3162 -0.8332
 4553UDC     C850080   8.208  15.064   1.405 -0.8558  0.5261  0.4984
 4553UDC     C950081   8.338  14.982   1.442  0.4019 -1.4520  1.0118
 4553UDC    C1050082   8.416  15.014   1.572  0.0171 -0.3975  0.5549
 4553UDC    C1150083   8.500  14.893   1.607  0.0668  0.6113 -0.8291
 4554UDC     C150084  17.686  15.068   6.748  0.8248  0.3922  0.3100
 4554UDC     C250085  17.803  15.076   6.647 -0.6453 -0.7968 -0.5579
 4554UDC     C350086  17.918  14.976   6.673 -0.0099 -1.0398 -0.5464
 4554UDC     C450087  18.036  15.024   6.588  1.0193  0.2479  0.4911
 4554UDC     C550088  18.164  14.952   6.631  1.2440 -1.4858 -0.6700
 4554UDC     C650089  18.254  14.966   6.512 -0.6327 -0.5500 -0.2367
 4554UDC     C750090  18.294  14.830   6.467 -0.3145  0.7264  0.6679
 4554UDC     C850091  18.423  14.826   6.380 -0.0465 -0.3382 -1.2411
 4554UDC     C950092  18.501  14.694   6.385 -0.3790 -0.0667  0.1725
 4554UDC    C1050093  18.415  14.594   6.305 -0.8844 -1.0428 -0.1364
 4554UDC    C1150094  18.451  14.452   6.318  0.8142  0.5084  0.0966
 4555UDC     C150095   5.762   2.069  16.152 -0.8557  0.4207 -2.0224
 4555UDC     C250096   5.628   2.112  16.117 -0.4764 -0.0120  1.1135
 4555UDC     C350097   5.570   2.024  16.010 -0.2711 -0.0564 -0.4487
 4555UDC     C450098   5.549   1.877  16.062 -1.5333  0.5146  0.1532
 4555UDC     C550099   5.419   1.879  16.144  0.1631  0.7382  0.0932
 4555UDC     C650100   5.384   1.758  16.230 -1.2429  0.1854 -0.4101
 4555UDC     C750101   5.242   1.781  16.295 -0.0121  1.2089 -0.2078
 4555UDC     C850102   5.176   1.687  16.397  0.8872 -0.2204  0.8994
 4555UDC     C950103   5.087   1.747  16.501 -0.4526  0.4248  0.3975
 4555UDC    C1050104   5.026   1.643  16.598 -0.2218 -0.1948  0.7760
 4555UDC    C1150105   4.921   1.687  16.706 -0.1439  0.1409  0.7872
 4556UDC     C150106  17.197  19.983   3.357 -0.2421  0.8201 -0.7072
 4556UDC     C250107  17.316  19.988   3.261  0.0317  0.0469 -0.2131
 4556UDC     C350108  17.255  19.918   3.144  0.4180 -0.6755  0.0168
 4556UDC     C450109  17.159  20.011   3.064 -0.8901  0.5161 -0.2848
 4556UDC     C550110  17.174  20.021   2.913  0.0195  0.6069 -0.0134
 4556UDC     C650111  17.076  20.111   2.846  0.5522 -0.1534 -0.4674
 4556UDC     C750112  17.045  20.087   2.692 -0.8851 -0.9757 -0.0870
 4556UDC     C850113  16.947  20.188   2.633 -0.7588 -0.0817 -0.5496
 4556UDC     C950114  16.889  20.150   2.495 -0.7053  1.0285  0.3161
 4556UDC    C1050115  16.981  20.090   2.378  0.4517 -0.0924 -0.0993
 4556UDC    C1150116  16.900  20.118   2.247 -0.1892 -0.4439  0.4305
 4557UDC     C150117  16.818  18.281  10.475 -0.2411 -0.3199  1.5289
 4557UDC     C250118  16.744  18.280  10.612  0.6258  0.2518  0.9372
 4557UDC     C350119  16.614  18.194  10.608 -0.4803 -0.8151 -0.5293
 4557UDC     C450120  16.600  18.160  10.757 -0.3047 -1.0433  0.4041
 4557UDC     C550121  16.734  18.162  10.834 -0.0391  0.8612 -0.6437
 4557UDC     C650122  16.727  18.068  10.959 -0.0845  0.3794  0.6956
 4557UDC     C750123  16.867  18.051  11.013 -0.6775  0.1831 -0.2431
 4557UDC     C850124  16.985  18.026  10.917  0.1141  0.7944  0.6048
 4557UDC     C950125  17.008  17.882  10.860 -0.2599 -0.1129  1.0714
 4557UDC    C1050126  17.100  17.902  10.739 -0.3876 -0.6236  0.2124
 4557UDC    C1150127  17.201  17.780  10.728 -0.2816  0.7546 -0.5287
 4558UDC     C150128   9.195  12.148   2.705 -0.5527 -0.6592  0.1824
 4558UDC     C250129   9.319  12.208   2.623  0.5091 -0.5977  0.4278
 4558UDC     C350130   9.426  12.221   2.735  0.9787  0.5834 -0.0658
 4558UDC     C450131   9.406  12.322   2.847 -0.2244 -0.3573 -0.0103
 4558UDC     C550132   9.353  12.455   2.792  0.4690  0.1285 -0.7327
 4558UDC     C650133   9.379  12.574   2.886  0.1592  0.3145 -0.0179
 4558UDC     C750134   9.315  12.546   3.022 -0.9658  0.9827 -0.9070
 4558UDC     C850135   9.351  12.650   3.122 -0.4356 -0.0994 -0.0174
 4558UDC     C950136   9.502  12.657   3.161  0.8338  0.3561 -0.6435
 4558UDC    C1050137   9.560  12.790   3.209 -0.1234  0.1804  0.6767
 4558UDC    C1150138   9.708  12.791   3.165 -0.8601  1.1828  0.1245
 4559UDC     C150139   1.869  16.893  14.624  0.3956  0.0651 -0.8405
 4559UDC     C250140   1.991  16.821  14.567 -0.6763  0.6199 -0.0800
 4559UDC     C350141   1.961  16.784  14.424 -0.1606  0.1891 -0.8558
 4559UDC     C450142   1.829  16.703  14.409  0.1870  0.0294 -1.7253
 4559UDC     C550143   1.810  16.627  14.280  0.0704  0.1659  0.4862
 4559UDC     C650144   1.808  16.729  14.150 -0.2942 -0.9962 -1.5438
 4559UDC     C750145   1.718  16.851  14.185  0.1701  0.4682  0.3831
 4559UDC     C850146   1.700  16.952  14.070  0.6056  0.5221  0.8388
 4559UDC     C950147   1.700  17.079  14.140 -1.0765 -0.1763 -0.7581
 4559UDC    C1050148   1.735  17.207  14.058 -0.2140 -0.0959  1.3055
 4559UDC    C1150149   1.671  17.339  14.108  0.1201  0.2759 -0.6338
 4560UDC     C150150   6.318   3.279   0.012  0.2642 -0.6002  0.0212
 4560UDC     C250151   6.255   3.140   0.041  0.8702 -1.0896  0.1865
 4560UDC     C350152   6.349   3.045   0.118 -0.5307 -0.2809 -0.3154
 4560UDC     C450153   6.414   3.091   0.256  0.2737 -0.2411  1.0279
 4560UDC     C550154   6.371   3.016   0.383 -0.1798 -1.0171  0.1749
 4560UDC     C650155   6.454   2.889   0.401  0.4067 -0.1802 -0.0726
 4560UDC     C750156   6.374   2.770   0.353 -0.4179  0.9271 -0.0122
 4560UDC     C850157   6.453   2.679   0.265 -1.0710 -0.6940  0.5886
 4560UDC     C950158   6.551   2.756   0.163 -0.3208  0.1253 -0.0420
 4560UDC    C1050159   6.632   2.653   0.080 -0.8274 -0.7259  0.0043
 4560UDC    C1150160   6.548   2.544   0.018 -0.3426 -0.4190  1.0677
 4561UDC     C150161   2.632  16.026   3.962  0.1809  0.2317 -0.0527
 4561UDC     C250162   2.599  16.119   3.851 -0.3611 -0.8326 -0.3848
 4561UDC     C350163   2.691  16.231   3.800  0.0867  0.1946  0.7854
 4561UDC     C450164   2.634  16.364   3.740 -0.3351  0.5036 -0.6686
 4561UDC     C550165   2.722  16.432   3.633  0.0645 -1.0159 -0.7798
 4561UDC     C650166   2.673  16.390   3.495  0.7462  0.5818  0.1469
 4561UDC     C750167   2.769  16.421   3.373  0.5397 -0.0869 -0.7611
 4561UDC     C850168   2.774  16.581   3.364 -0.5337 -0.0358  0.2389
 4561UDC     C950169   2.874  16.646   3.265  0.0311 -0.7970 -0.0919
 4561UDC    C1050170   3.004  16.698   3.322  0.0335 -0.4100 -0.2758
 4561UDC    C1150171   3.113  16.719   3.220 -0.2122 -0.0844 -0.4718
 4562UDC     C150172  14.332  18.266  11.407 -0.6430  0.4045  0.5816
 4562UDC     C250173  14.252  18.401  11.418 -0.3216  0.4798 -0.2023
 4562UDC     C350174  14.127  18.387  11.517 -0.1359 -1.0256  0.3354
 4562UDC     C450175  14.055  18.526  11.532 -0.6619  0.0929 -0.4160
 4562UDC     C550176  13.950  18.526  11.647 -0.9402  0.5229  1.1429
 4562UDC     C650177  13.900  18.666  11.683  0.4553  0.2008 -0.5547
 4562UDC     C750178  13.857  18.761  11.576  0.7181  0.3475  0.8827
 4562UDC     C850179  13.798  18.896  11.608  1.2104 -0.2948 -1.3678
 4562UDC     C950180  13.733  18.981  11.503  0.6951 -0.3217 -0.3339
 4562UDC    C1050181  13.596  18.915  11.451 -1.0795 -0.9712 -1.1838
 4562UDC    C1150182  13.540  18.992  11.332  0.7802  1.0303  0.0667
 4563UDC     C150183  17.872  18.382  11.665 -0.2626 -0.4321  0.0106
 4563UDC     C250184  17.901  18.244  11.714 -0.7243 -0.4944 -0.3579
 4563UDC     C350185  17.961  18.143  11.616  0.5893  0.8328  0.0104
 4563UDC     C450186  18.003  18.015  11.690  0.0615  0.2355 -0.5768
 4563UDC     C550187  18.043  17.912  11.586  0.1423  0.6999 -0.3220
 4563UDC     C650188  17.949  17.839  11.490  0.1052 -0.3435  0.1900
 4563UDC     C750189  17.826  17.784  11.559  0.6863  0.5493 -0.5201
 4563UDC     C850190  17.876  17.708  11.686  0.2454  0.4161 -0.0163
 4563UDC     C950191  17.765  17.648  11.787 -0.5276 -0.1653 -1.3083
 4563UDC    C1050192  17.719  17.511  11.747  0.6079 -0.2748  0.5199
 4563UDC    C1150193  17.788  17.377  11.798 -1.2597 -0.0036  0.0119
 4564UDC     C150194   2.168  12.104   2.422  0.5455 -0.4159 -1.2138
 4564UDC     C250195   2.316  12.068   2.397 -0.0495 -0.5649  0.7151
 4564UDC     C350196   2.385  11.972   2.499  0.0368 -0.2740  1.0428
 4564UDC     C450197   2.514  12.034   2.555 -0.9199  0.6994  0.7153
 4564UDC     C550198   2.557  11.925   2.650 -0.1674 -0.0157  0.2782
 4564UDC     C650199   2.578  11.782   2.588 -0.6177  1.2514  0.7888
 4564UDC     C750200   2.578  11.664   2.688  0.3200 -0.9747 -0.8216
 4564UDC     C850201   2.657  11.699   2.813  0.4765  1.6268 -0.2585
 4564UDC     C950202   2.674  11.602   2.933  0.5180 -0.7310  0.1285
 4564UDC    C1050203   2.753  11.668   3.051  0.2762  0.5538 -0.8379
 4564UDC    C1150204   2.661  11.750   3.142  0.2910 -0.9392  0.3321
 4565UDC     C150205  15.258  11.614   8.864  0.6325  0.1957  0.0331
 4565UDC     C250206  15.214  11.618   8.717 -1.3768  0.5479 -0.0664
 4565UDC     C350207  15.066  11.633   8.707  1.3186  0.0250 -0.6472
 4565UDC     C450208  15.018  11.772   8.730 -0.1840 -0.1284 -1.3404
 4565UDC     C550209  14.943  11.853   8.624 -0.0935 -0.3532  0.6227
 4565UDC     C650210  14.944  12.006   8.660 -0.5430  0.2433 -0.0142
 4565UDC     C750211  14.917  12.007   8.815 -0.7755  0.5800 -0.2618
 4565UDC     C850212  14.780  12.082   8.834 -0.0691  0.9467 -0.3927
 4565UDC     C950213  14.724  12.107   8.973 -1.0693  0.4811  0.0656
 4565UDC    C1050214  14.622  12.221   8.965 -0.1858  0.9102  0.1008
 4565UDC    C1150215  14.563  12.279   9.093 -0.6025 -0.4820 -0.3756
 4566UDC     C150216  18.464  14.006  19.986  0.6412 -0.0922  0.1685
 4566UDC     C250217  18.471  14.009  20.134  0.5726 -1.1324 -0.1676
 4566UDC     C350218  18.333  13.971  20.197 -0.8905  0.7229  0.0670
 4566UDC     C450219  18.359  13.873  20.316  0.6071 -0.8068  0.8047
 4566UDC     C550220  18.376  13.727  20.286  0.9042 -0.7569  0.8563
 4566UDC     C650221  18.238  13.655  20.249  0.0676  1.0658  0.1957
 4566UDC     C750222  18.238  13.496  20.254  0.7315 -0.0039 -0.2550
 4566UDC     C850223  18.102  13.457  20.330 -0.1013 -0.7451 -0.7536
 4566UDC     C950224  17.971  13.417  20.253  0.7591 -0.4133 -0.2564
 4566UDC    C1050225  17.843  13.422  20.337  0.1893  0.2112  0.5747
 4566UDC    C1150226  17.800  13.561  20.381  0.6362 -0.4611 -0.2898
 4567UDC     C150227   8.000   9.156  19.153 -0.3295  0.0327 -0.0456
 4567UDC     C250228   7.918   9.022  19.130 -1.3381 -0.1481 -0.3155
 4567UDC     C350229   7.779   9.038  19.198 -0.7712 -0.3384  0.0435
 4567UDC     C450230   7.708   8.905  19.214  0.2078 -0.8102 -0.8691
 4567UDC     C550231   7.567   8.893  19.280 -0.3626 -0.7934 -0.0943
 4567UDC     C650232   7.446   8.957  19.204  0.6396 -0.2288 -0.2141
 4567UDC     C750233   7.315   8.946  19.279 -0.0583  0.3469  0.2218
 4567UDC     C850234   7.200   8.980  19.192  0.6317  0.2588  0.6720
 4567UDC     C950235   7.206   8.926  19.045  0.2151 -0.3810  0.5822
 4567UDC    C1050236   7.078   8.957  18.969 -0.3235 -0.9624  0.2022
 4567UDC    C1150237   7.079   8.933  18.816  0.5658 -0.2450  0.6951
 4568UDC     C150238  13.144   9.501   4.943  0.7231 -0.0191  0.8275
 4568UDC     C250239  13.111   9.387   5.049  0.2168 -1.3630 -1.2358
 4568UDC     C350240  12.982   9.313   5.034 -0.1050  0.0225 -0.3840
 4568UDC     C450241  12.946   9.214   5.142  0.5608 -0.0187 -0.6814
 4568UDC     C550242  12.795   9.190   5.155  0.2014  0.7254 -0.0340
 4568UDC     C650243  12.744   9.127   5.288  0.3984  0.2982 -0.4157
 4568UDC     C750244  12.694   9.239   5.378 -0.8179  0.4331 -0.7079
 4568UDC     C850245  12.616   9.214   5.512  0.1251 -0.5057  0.0496
 4568UDC     C950246  12.700   9.167   5.632 -0.3768 -0.8975 -0.1973
 4568UDC    C1050247  12.638   9.069   5.736 -0.5246  0.2085 -0.3819
 4568UDC    C1150248  12.743   8.972   5.789 -0.2700 -0.1606  0.2523
 4569UDC     C150249   0.598   6.007  12.567  0.7818  0.4570  0.1578
 4569UDC     C250250   0.470   5.934  12.525  0.9518 -1.0270  0.3809
 4569UDC     C350251   0.366   5.959  12.628  0.2972  0.0024 -0.3538
 4569UDC     C450252   0.271   6.080  12.602 -0.6961 -0.9238  1.4173
 4569UDC     C550253   0.141   6.074  12.685 -0.4405 -0.4530  0.0323
 4569UDC     C650254   0.101   6.206  12.757 -0.7666  1.0105 -0.4742
 4569UDC     C750255   0.201   6.279  12.856  0.1606 -0.2887  1.3743
 4569UDC     C850256   0.193   6.242  12.999  0.3629 -0.0492  0.1046
 4569UDC     C950257   0.044   6.276  13.044  0.0652  0.4004 -0.2128
 4569UDC    C1050258   0.019   6.253  13.196  0.2488 -0.6915 -0.5143
 4569UDC    C1150259  -0.096   6.324  13.278  0.2289  1.2263  1.5573
 4570UDC     C150260  18.410  19.710   5.469  0.7953  0.4322 -0.2146
 4570UDC     C250261  18.330  19.831   5.523  0.4296 -0.5850  0.1475
 4570UDC     C350262  18.393  19.972   5.541 -0.3280 -0.4966 -0.1556
 4570UDC     C450263  18.479  19.986   5.412  0.5705  0.3559  1.4022
 4570UDC     C550264  18.413  20.062   5.290  0.0364  0.6535 -0.4199
 4570UDC     C650265  18.485  20.162   5.198 -0.9942  0.7250  0.2125
 4570UDC     C750266  18.395  20.280   5.167  0.4980 -0.0213  0.1332
 4570UDC     C850267  18.427  20.376   5.054 -0.4464 -0.2147  0.3778
 4570UDC     C950268  18.308  20.473   5.011 -0.2423  1.2445 -0.6443
 4570UDC    C1050269  18.316  20.582   4.906 -0.1523 -0.3811  0.0700
 4570UDC    C1150270  18.195  20.675   4.909 -0.4391 -0.9639 -0.2602
 4571UDC     C150271  14.127  10.996  13.084 -0.9150  0.4930  0.0928
 4571UDC     C250272  14.130  11.012  12.930 -0.1723 -0.0211  1.4450
 4571UDC     C350273  14.025  11.072  12.847 -0.8771 -0.4224 -0.6765
 4571UDC     C450274  14.045  11.042  12.696 -0.6664 -0.3280 -0.8874
 4571UDC     C550275  14.202  11.064  12.668  0.0449  0.8474 -0.3050
 4571UDC     C650276  14.233  11.211  12.630  0.4795 -0.1455 -1.0389
 4571UDC     C750277  14.378  11.235  12.588  0.1547 -1.3592 -0.1666
 4571UDC     C850278  14.432  11.142  12.490 -1.3610  0.0613  1.1426
 4571UDC     C950279  14.572  11.196  12.467 -1.1161 -0.4213 -0.0049
 4571UDC    C1050280  14.661  11.124  12.361 -0.1125 -0.5849 -0.7830
 4571UDC    C1150281  14.794  11.195  12.324 -0.8005 -0.0961 -0.3488
 4572UDC     C150282  17.317  16.499   3.877  1.0883 -0.2556 -0.0811
 4572UDC     C250283  17.254  16.597   3.977  0.6503  0.6725  0.0096
 4572UDC     C350284  17.338  16.723   3.976  0.0230  0.4361  0.1429
 4572UDC     C450285  17.485  16.688   4.015  1.8756 -0.4214  0.5450
 4572UDC     C550286  17.595  16.799   4.010  0.3448  0.3906 -1.3902
 4572UDC     C650287  17.699  16.763   4.120 -0.1440  0.5336 -1.1233
 4572UDC     C750288  17.802  16.648   4.092 -0.5224 -0.9612  0.5591
 4572UDC     C850289  17.898  16.592   4.199 -0.7804 -0.0093 -0.0050
 4572UDC     C950290  17.859  16.456   4.252  0.3785 -0.2280 -1.4995
 4572UDC    C1050291  17.958  16.400   4.349  0.5942 -0.3689 -0.7062
 4572UDC    C1150292  18.076  16.328   4.287  0.2589 -0.5593  0.4701
 4573UDC     C150293   1.236   2.884   1.431  0.0276  0.3859 -0.8704
 4573UDC     C250294   1.161   2.992   1.354  0.4033 -0.4575  0.8013
 4573UDC     C350295   1.157   2.950   1.195 -0.9612  1.4997 -0.6680
 4573UDC     C450296   1.293   2.868   1.181  0.9877 -0.2362  0.4450
 4573UDC     C550297   1.367   2.897   1.054  0.3747 -0.0646  0.2846
 4573UDC     C650298   1.464   2.777   1.040  0.8715 -0.8862  1.1259
 4573UDC     C750299   1.588   2.811   0.965  0.1174  0.2565  0.8797
 4573UDC     C850300   1.594   2.785   0.810  1.2226 -0.9328 -0.9265
 4573UDC     C950301   1.728   2.777   0.739  0.3210 -1.0885 -0.2639
 4573UDC    C1050302   1.807   2.906   0.754 -0.0204 -0.3633  0.8317
 4573UDC    C1150303   1.931   2.913   0.658 -0.2402 -0.9596  0.2488
 4574UDC     C150304  11.374   9.474   4.182 -0.1175  0.0273 -0.2443
 4574UDC     C250305  11.282   9.454   4.066 -0.0445  0.5692 -0.4242
 4574UDC     C350306  11.171   9.550   4.061  0.7061 -0.4203  0.9218
 4574UDC     C450307  11.087   9.523   3.934 -0.0397 -0.5500  0.9114
 4574UDC     C550308  11.044   9.662   3.871 -0.1105  0.3765 -0.3756
 4574UDC     C650309  10.988   9.644   3.727  0.6890  0.6045 -0.1974
 4574UDC     C750310  10.923   9.776   3.684  0.7070  0.4356  0.6488
 4574UDC     C850311  10.930   9.792   3.533 -0.7585  0.0441 -0.0219
 4574UDC     C950312  10.895   9.666   3.451  0.1006  0.2869  0.9045
 4574UDC    C1050313  10.940   9.706   3.307  0.0033 -0.1399 -0.5360
 4574UDC    C1150314  10.875   9.638   3.187  0.8549  0.2491 -0.1517
 4575UDC     C150315   8.715  15.216  10.829 -0.2799 -0.1440 -0.0464
 4575UDC     C250316   8.593  15.190  10.744 -0.2695  0.6967  0.1040
 4575UDC     C350317   8.493  15.301  10.740 -0.3740  0.7193 -1.0877
 4575UDC     C450318   8.343  15.269  10.703  0.0543 -0.4245  0.5291
 4575UDC     C550319   8.320  15.262  10.554 -0.5330  0.8051 -0.2306
 4575UDC     C650320   8.215  15.364  10.511 -0.9883  0.0334 -1.1975
 4575UDC     C750321   8.237  15.420  10.370 -0.5529 -0.4551 -0.2301
 4575UDC     C850322   8.202  15.324  10.250  0.1982  0.0785 -0.2454
 4575UDC     C950323   8.223  15.404  10.115 -0.7878  1.5077  0.0475
 4575UDC    C1050324   8.139  15.538  10.100 -0.2461  0.2393  0.8063
 4575UDC    C1150325   8.163  15.625   9.970  0.5926  0.3895  0.1319
 4576UDC     C150326  13.111   3.317   4.308 -1.0734 -0.2282 -0.1500
 4576UDC     C250327  13.008   3.419   4.260 -0.3257  0.1325  0.4892
 4576UDC     C350328  13.023   3.436   4.106  0.9628  0.9879 -0.3624
 4576UDC     C450329  12.911   3.496   4.024 -0.1883 -1.7442  1.1378
 4576UDC     C550330  12.788   3.476   4.119 -0.9383  1.1118 -0.1074
 4576UDC     C650331  12.643   3.494   4.063  0.0703 -0.2805  0.0969
 4576UDC     C750332  12.586   3.368   3.990  0.5790  0.4364  0.6372
 4576UDC     C850333  12.433   3.351   4.003  0.5354 -0.7926 -0.5551
 4576UDC     C950334  12.365   3.466   3.922  0.3379 -1.1052  0.1802
 4576UDC    C1050335  12.334   3.462   3.769  0.2820 -0.1557  0.1065
 4576UDC    C1150336  12.311   3.602   3.706 -0.4274 -0.0743  0.3375
 4577UDC     C150337  10.892  12.096  17.068 -1.0239  0.8156 -0.3586
 4577UDC     C250338  11.004  12.006  17.013 -0.5208 -0.9880  0.2248
 4577UDC     C350339  11.074  11.912  17.115 -0.3219  0.4283 -1.3982
 4577UDC     C450340  10.970  11.846  17.216 -0.7671 -0.9089 -0.2893
 4577UDC     C550341  10.882  11.742  17.159 -1.4102  0.6702  0.7956
 4577UDC     C650342  10.768  11.698  17.250 -0.1807  0.8112 -0.3461
 4577UDC     C750343  10.719  11.803  17.346  0.3397 -1.0269  0.0422
 4577UDC     C850344  10.595  11.755  17.426  0.7794  0.8959 -0.1061
 4577UDC     C950345  10.619  11.774  17.577  0.0786  0.5460  0.1497
 4577UDC    C1050346  10.535  11.699  17.685 -1.0168  0.3382  0.1543
 4577UDC    C1150347  10.629  11.583  17.721  0.1743 -0.0777  0.1013
 4578UDC     C150348  10.212  15.221   5.463 -0.4411  1.1578 -0.7337
 4578UDC     C250349  10.271  15.132   5.576 -0.3991  0.1605  0.3115
 4578UDC     C350350  10.276  15.214   5.712 -1.2223  1.3905 -0.1019
 4578UDC     C450351  10.353  15.167   5.833 -0.1013  0.5279  0.5264
 4578UDC     C550352  10.350  15.254   5.962 -0.8417  0.8715  0.2356
 4578UDC     C650353  10.454  15.364   5.964 -1.2823 -0.9062  0.7243
 4578UDC     C750354  10.589  15.298   5.945 -0.5109  0.4963  0.7023
 4578UDC     C850355  10.685  15.374   5.856 -0.4740  0.0958  0.6196
 4578UDC     C950356  10.781  15.456   5.945 -0.6597  0.0494 -0.3339
 4578UDC    C1050357  10.881  15.385   6.034  0.9656  0.0323  0.6682
 4578UDC    C1150358  11.000  15.472   6.068  1.3436  0.8261  0.0759
 4579UDC     C150359   8.110  17.876  18.878 -0.3059  0.9290  0.4201
 4579UDC     C250360   8.096  18.015  18.827 -0.2897  0.1697 -0.6055
 4579UDC     C350361   8.223  18.079  18.788 -1.4314 -0.0381 -0.1783
 4579UDC     C450362   8.232  18.231  18.811  0.4972 -0.0399  0.3238
 4579UDC     C550363   8.276  18.305  18.938 -0.3339  0.7951  0.5023
 4579UDC     C650364   8.426  18.291  18.933 -0.4297 -0.3625 -1.2688
 4579UDC     C750365   8.465  18.435  18.918  0.2254 -0.9104 -0.4938
 4579UDC     C850366   8.559  18.468  18.810  0.1439  0.0412  0.4932
 4579UDC     C950367   8.596  18.619  18.837  0.6426  1.7128  1.4574
 4579UDC    C1050368   8.630  18.689  18.699 -0.8333 -0.0379 -0.0478
 4579UDC    C1150369   8.642  18.846  18.713 -0.6785  0.8723  0.6962
 4580UDC     C150370   9.943   0.536   4.968 -0.2159 -0.1275 -0.5864
 4580UDC     C250371   9.825   0.444   4.958  0.0727  0.5055 -1.3156
 4580UDC     C350372   9.872   0.299   4.925  1.2546  0.1027 -0.1833
 4580UDC     C450373   9.944   0.211   5.033  0.0046 -1.5415  0.3563
 4580UDC     C550374   9.949   0.065   5.006  0.1804  0.2939 -0.1965
 4580UDC     C650375   9.973  -0.036   5.124 -0.6383  0.9505  0.9502
 4580UDC     C750376  10.118  -0.054   5.175  0.0063  0.1318  0.2332
 4580UDC     C850377  10.129  -0.011   5.320 -0.1542 -0.5825 -0.1496
 4580UDC     C950378  10.249   0.092   5.352 -0.6393  1.5612  0.4608
 4580UDC    C1050379  10.273   0.146   5.489  0.4662 -0.7300  0.3852
 4580UDC    C1150380  10.157   0.224   5.555 -0.3489 -0.8937 -1.0093
 4581UDC     C150381   0.440  19.628   2.839  0.0557 -0.3715 -0.1532
 4581UDC     C250382   0.450  19.662   2.984  0.5628  0.0744  0.6504
 4581UDC     C350383   0.311  19.658   3.045  0.2626 -0.3951 -0.9600
 4581UDC     C450384   0.333  19.679   3.198  0.1509 -0.1642  0.9812
 4581UDC     C550385   0.188  19.724   3.244  0.1111  0.2534 -0.0163
 4581UDC     C650386   0.143  19.869   3.217  0.6817 -0.5175  0.2203
 4581UDC     C750387   0.108  19.922   3.352 -0.3528  0.1255  0.7913
 4581UDC     C850388   0.044  19.829   3.442  0.2730 -0.1967 -1.1824
 4581UDC     C950389   0.028  19.857   3.598 -0.1577  0.7723  0.8831
 4581UDC    C1050390  -0.049  19.765   3.691  0.6927 -1.1971 -0.6255
 4581UDC    C1150391   0.022  19.641   3.739  0.6325  0.2121  0.0880
 4582UDC     C150392  15.900   1.757  19.804 -0.1103 -1.5217  1.1283
 4582UDC     C250393  16.050   1.756  19.852 -0.2856 -1.4323  0.1034
 4582UDC     C350394  16.064   1.769  20.003  0.3914 -0.2159  0.1711
 4582UDC     C450395  16.212   1.781  20.046 -1.8201  2.0862  0.6784
 4582UDC     C550396  16.264   1.922  20.028 -1.1956 -0.7405 -0.3304
 4582UDC     C650397  16.372   1.971  20.123  0.6911 -1.7683  0.0740
 4582UDC     C750398  16.492   1.886  20.122  0.4851  0.2448  0.3048
 4582UDC     C850399  16.585   1.928  20.006  0.2609  0.6870 -0.4411
 4582UDC     C950400  16.717   1.841  20.009  0.2861  0.3992  0.0750
 4582UDC    C1050401  16.832   1.936  19.967  0.2936 -0.0916 -0.5490
 4582UDC    C1150402  16.970   1.871  19.921  0.6373  0.1792 -0.6745
 4583UDC     C150403   0.640  13.326   7.414  0.2990  0.4244  0.7407
 4583UDC     C250404   0.703  13.197   7.357  0.6036 -0.5050  0.0054
 4583UDC     C350405   0.633  13.060   7.381  0.3939 -1.1071  0.2060
 4583UDC     C450406   0.690  12.945   7.291  0.4717 -0.4261 -0.6281
 4583UDC     C550407   0.659  12.799   7.323  0.6072  0.4806 -0.7320
 4583UDC     C650408   0.511  12.774   7.365  0.9857 -0.5476 -0.0477
 4583UDC     C750409   0.401  12.831   7.272 -0.7890 -0.5618  0.6682
 4583UDC     C850410   0.253  12.773   7.278 -0.1073 -0.1541  0.8286
 4583UDC     C950411   0.165  12.803   7.156 -0.4238  0.0635  0.1473
 4583UDC    C1050412   0.145  12.953   7.128 -0.2639  0.5422 -0.1475
 4583UDC    C1150413   0.040  12.981   7.017  0.2024  0.2907 -0.4151
 4584UDC     C150414  13.529  13.565  19.246 -0.0364 -0.4536  0.2043
 4584UDC     C250415  13.684  13.542  19.276  1.4515  0.7264 -0.4349
 4584UDC     C350416  13.726  13.496  19.414  0.6476  0.8417  0.3160
 4584UDC     C450417  13.634  13.401  19.491  0.3158  0.3403 -0.5410
 4584UDC     C550418  13.695  13.379  19.630 -0.3460  0.4597  0.1931
 4584UDC     C650419  13.636  13.273  19.723  0.0289 -1.2956  0.8634
 4584UDC     C750420  13.640  13.127  19.687  0.3517  0.5492 -0.6652
 4584UDC     C850421  13.610  13.040  19.801 -0.1764  1.1534  0.1622
 4584UDC     C950422  13.587  12.890  19.766  0.1408 -0.5005  1.1265
 4584UDC    C1050423  13.658  12.808  19.869 -0.5499  0.2485  0.0537
 4584UDC    C1150424  13.812  12.792  19.832 -0.7512 -0.1521  0.4797
 4585UDC     C150425   8.798  16.791   9.795  0.7590  0.2504 -0.2956
 4585UDC     C250426   8.890  16.875   9.701  0.2436 -1.0054 -0.1340
 4585UDC     C350427   8.842  17.021   9.673 -0.4836  0.3201  0.1034
 4585UDC     C450428   8.697  17.017   9.618  0.1755 -0.4103  0.6557
 4585UDC     C550429   8.671  16.953   9.480 -0.9945  0.9981  0.2119
 4585UDC     C650430   8.540  16.871   9.455  0.6237  0.7515 -0.5964
 4585UDC     C750431   8.451  16.875   9.325 -0.5079 -0.3374  0.2309
 4585UDC     C850432   8.415  17.019   9.280 -0.7369  1.2632 -0.1919
 4585UDC     C950433   8.321  17.013   9.157  0.5857 -0.5182 -0.3313
 4585UDC    C1050434   8.403  17.030   9.021  0.4260 -0.3793 -0.1314
 4585UDC    C1150435   8.496  16.915   8.973 -0.1125 -0.1426  0.0560
 4586UDC     C150436  11.600  18.978   0.048 -0.3718 -0.1733  0.4570
 4586UDC     C250437  11.511  18.932  -0.063  0.0191 -0.0887 -0.2673
 4586UDC     C350438  11.551  18.969  -0.207  0.1271  0.1830  1.2194
 4586UDC     C450439  11.645  18.868  -0.269 -0.8417  0.4682 -0.8398
 4586UDC     C550440  11.716  18.908  -0.399  0.4531 -0.6632 -0.8158
 4586UDC     C650441  11.821  18.823  -0.463 -0.3651  0.1655  0.1918
 4586UDC     C750442  11.878  18.870  -0.604  0.7283 -0.3676 -0.1287
 4586UDC     C850443  11.974  18.991  -0.596  0.1054  0.1385 -0.5716
 4586UDC     C950444  12.056  19.037  -0.713 -1.1333  0.1396 -0.6647
 4586UDC    C1050445  12.145  19.157  -0.700  0.1221 -0.4062  0.4133
 4586UDC    C1150446  12.184  19.245  -0.816  1.0545  0.1524  0.1496
 4587UDC     C150447  15.664  12.478  17.893 -0.1231  0.1883  0.3960
 4587UDC     C250448  15.804  12.543  17.884  0.0618  1.4210  0.1277
 4587UDC     C350449  15.825  12.690  17.931  0.7827 -0.1710  0.4205
 4587UDC     C450450  15.853  12.722  18.080 -0.4141 -0.2876 -0.3971
 4587UDC     C550451  15.838  12.870  18.132 -0.5760 -0.8791 -0.6074
 4587UDC     C650452  15.907  12.907  18.265 -0.1727  0.0067  0.1866
 4587UDC     C750453  16.058  12.942  18.245  0.8658  0.9833  0.0968
 4587UDC     C850454  16.130  12.951  18.380  0.4740 -0.1157  0.0349
 4587UDC     C950455  16.226  13.065  18.372 -0.2968 -0.2337  0.0871
 4587UDC    C1050456  16.345  13.056  18.473 -0.5264 -0.0061 -0.5236
 4587UDC    C1150457  16.283  13.033  18.613 -1.2081 -0.0454  0.2190
 4588UDC     C150458  16.512  10.100   8.897 -0.7853  1.2874  1.4670
 4588UDC     C250459  16.392  10.115   8.990  0.1695 -0.2639  1.2544
 4588UDC     C350460  16.393  10.055   9.129  0.3738  0.8314 -0.9683
 4588UDC     C450461  16.359   9.908   9.132  0.1643  0.1662 -0.2105
 4588UDC     C550462  16.389   9.841   9.266 -0.1812 -1.4110 -0.1862
 4588UDC     C650463  16.430   9.692   9.283 -1.8741 -0.7273  0.1957
 4588UDC     C750464  16.324   9.585   9.297  1.2019  0.1941 -0.4333
 4588UDC     C850465  16.371   9.436   9.282  0.7808 -0.1195  0.2823
 4588UDC     C950466  16.283   9.343   9.365  0.0453 -0.8584  1.1037
 4588UDC    C1050467  16.296   9.377   9.513  0.6116  1.3404 -0.5551
 4588UDC    C1150468  16.437   9.364   9.561  0.3352  0.2367  0.5937
 4589UDC     C150469  11.359   9.777  14.902  0.5423  0.7531 -0.0885
 4589UDC     C250470  11.311   9.646  14.849  1.0563 -0.3252  0.4004
 4589UDC     C350471  11.412   9.556  14.765  0.3264 -0.4890  0.7272
 4589UDC     C450472  11.533   9.528  14.853  0.4289 -0.8121 -0.8346
 4589UDC     C550473  11.656   9.443  14.811 -0.0540  0.5183  0.2301
 4589UDC     C650474  11.673   9.308  14.871 -0.3367 -0.1881 -0.0090
 4589UDC     C750475  11.778   9.236  14.795 -0.5545 -0.5028  0.1564
 4589UDC     C850476  11.835   9.111  14.850  0.7368  0.0280 -0.4693
 4589UDC     C950477  11.773   9.041  14.974 -0.3092  0.8437 -0.0876
 4589UDC    C1050478  11.851   8.918  15.032  0.0883 -0.2939 -0.4354
 4589UDC    C1150479  11.788   8.812  15.126  0.6335 -0.5146  0.5880
 4590UDC     C150480   0.272  16.240   5.054  0.6105 -0.1608  1.1484
 4590UDC     C250481   0.273  16.104   5.124  0.6575  0.9357  0.6101
 4590UDC     C350482   0.175  16.100   5.244 -0.3343  0.1389 -0.8637
 4590UDC     C450483   0.194  16.192   5.367 -0.0302  0.1496 -0.1284
 4590UDC     C550484   0.261  16.106   5.474  0.5383 -0.6364  0.4447
 4590UDC     C650485   0.177  16.063   5.590  0.4487 -0.2745 -0.0367
 4590UDC     C750486   0.118  16.189   5.668  0.3773  0.3387  0.6183
 4590UDC     C850487   0.062  16.175   5.810  0.3048  0.7892 -0.1875
 4590UDC     C950488   0.155  16.092   5.898 -0.2615  0.5941 -0.4135
 4590UDC    C1050489   0.301  16.124   5.944  0.4828 -0.2685 -0.5665
 4590UDC    C1150490   0.392  16.008   5.982  0.1516  0.9889 -0.2077
 4591UDC     C150491   0.082   8.027   3.005  0.1212  0.1030  0.7145
 4591UDC     C250492   0.182   8.020   3.123 -0.3475 -0.4280  0.5247
 4591UDC     C350493   0.280   7.904   3.155  0.7644  0.8207 -0.8573
 4591UDC     C450494   0.205   7.775   3.115  0.5565  0.9034  0.6895
 4591UDC     C550495   0.265   7.643   3.061 -0.0065 -1.0794 -0.2306
 4591UDC     C650496   0.166   7.546   3.004  0.1805  0.2767  0.5403
 4591UDC     C750497   0.149   7.514   2.850 -0.1821 -0.9271 -0.2331
 4591UDC     C850498   0.065   7.603   2.761  0.3697  0.6158 -0.3550
 4591UDC     C950499   0.061   7.572   2.616  0.4479  1.5166  1.0121
 4591UDC    C1050500   0.167   7.624   2.516  0.4085 -0.4271  0.2092
 4591UDC    C1150501   0.159   7.782   2.499 -0.8398  0.5560  0.1799
 4592UDC     C150502   8.082   4.160  13.829  0.2021 -0.2046 -0.5512
 4592UDC     C250503   8.233   4.100  13.843 -0.7935  0.5253  0.0310
 4592UDC     C350504   8.344   4.209  13.832  0.6546 -0.3716 -1.0060
 4592UDC     C450505   8.458   4.169  13.927 -0.2276  0.2740  0.6362
 4592UDC     C550506   8.540   4.297  13.931  0.0954 -0.1608 -0.1848
 4592UDC     C650507   8.652   4.319  14.045  0.5046 -0.5708  1.0358
 4592UDC     C750508   8.759   4.210  14.031 -0.1842 -0.3007  0.2854
 4592UDC     C850509   8.803   4.151  14.166 -1.3821 -0.4334  0.0533
 4592UDC     C950510   8.939   4.077  14.182 -0.7059  0.3780 -0.7185
 4592UDC    C1050511   8.978   4.017  14.322 -0.2969 -0.0802 -0.3322
 4592UDC    C1150512   9.116   3.951  14.312  0.9302  0.1670 -0.1412
 4593UDC     C150513  13.246   0.207   1.288 -0.0507 -0.1241  0.1609
 4593UDC     C250514  13.322   0.075   1.257 -1.0423  0.4486 -0.5068
 4593UDC     C350515  13.455   0.119   1.198  1.6294 -0.3427 -0.0249
 4593UDC     C450516  13.540  -0.004   1.184  2.2043  1.1074  0.1657
 4593UDC     C550517  13.685   0.020   1.140  0.0480 -0.5594 -1.0235
 4593UDC     C650518  13.748  -0.119   1.107  0.0000 -0.7192  0.0046
 4593UDC     C750519  13.863  -0.098   1.003  0.1856 -0.2998  0.2728
 4593UDC     C850520  13.823  -0.071   0.855 -0.0598  0.0078  0.8450
 4593UDC     C950521  13.929  -0.133   0.760 -1.0454  0.6654 -0.7084
 4593UDC    C1050522  13.967  -0.279   0.765 -1.7876  0.0966 -0.4945
 4593UDC    C1150523  13.858  -0.379   0.719 -0.9163 -0.4426 -0.9403
 4594UDC     C150524   4.217   1.097   2.088  1.1403  0.5514  0.0935
 4594UDC     C250525   4.230   0.971   2.171 -1.5271 -0.0582 -0.1479
 4594UDC     C350526   4.130   0.959   2.286  0.1756 -1.3934 -0.7124
 4594UDC     C450527   4.111   1.086   2.370  0.8208  0.0735 -0.1774
 4594UDC     C550528   3.991   1.099   2.459 -0.4784 -0.2936 -0.8219
 4594UDC     C650529   3.858   1.093   2.382 -0.7992 -0.7676  0.0696
 4594UDC     C750530   3.840   1.199   2.279 -0.1993  0.0402  0.1466
 4594UDC     C850531   3.696   1.246   2.270  0.3860 -0.2056 -0.6027
 4594UDC     C950532   3.607   1.118   2.250  0.5045 -0.0846  0.2647
 4594UDC    C1050533   3.462   1.114   2.218 -0.1114 -0.4823 -0.0588
 4594UDC    C1150534   3.375   0.986   2.221  1.0004  0.8790  0.1018
 4595UDC     C150535   0.792   0.088  17.027  0.6583 -1.6062 -0.3071
 4595UDC     C250536   0.888   0.210  17.003  0.2569 -0.7363 -0.4476
 4595UDC     C350537   0.909   0.311  17.121  0.3453  0.6418  0.4004
 4595UDC     C450538   0.866   0.459  17.096 -0.6503  0.0613  0.9790
 4595UDC     C550539   0.880   0.554  17.218  0.1396 -0.4412  0.0587
 4595UDC     C650540   0.805   0.500  17.339  0.3244 -0.5914  0.6973
 4595UDC     C750541   0.832   0.587  17.466  0.2396  1.3846  0.4503
 4595UDC     C850542   0.833   0.514  17.602  0.4512  0.4180 -0.2829
 4595UDC     C950543   0.800   0.610  17.721  0.4114 -0.3081 -0.7857
 4595UDC    C1050544   0.740   0.545  17.848  0.4017  0.7901  0.7012
 4595UDC    C1150545   0.588   0.556  17.848  0.0035  0.6621 -0.1494
 4596UDC     C150546   0.807   1.996  14.965  0.2542 -0.5153 -0.4015
 4596UDC     C250547   0.852   1.918  14.841  0.6715  0.0173 -0.0122
 4596UDC     C350548   0.770   1.913  14.714 -0.7000 -0.2588  0.1502
 4596UDC     C450549   0.867   1.880  14.602  0.3487 -0.5271 -0.2619
 4596UDC     C550550   0.945   1.739  14.618 -0.3388 -0.3213 -0.8877
 4596UDC     C650551   0.857   1.614  14.637  0.8599 -0.7525  0.3211
 4596UDC     C750552   0.945   1.492  14.606 -0.0563  0.1150 -0.0603
 4596UDC     C850553   0.940   1.473  14.455  0.4737 -0.8722 -0.6417
 4596UDC     C950554   0.818   1.399  14.398  0.9363 -0.1733 -0.2449
 4596UDC    C1050555   0.765   1.292  14.495 -0.0059 -0.0544 -0.7432
 4596UDC    C1150556   0.649   1.194  14.457 -1.3548 -0.4818  0.0577
 4597UDC     C150557  17.370  12.070  11.784 -0.0992 -0.6573 -0.4025
 4597UDC     C250558  17.265  11.956  11.787  0.2054  0.4876  0.8528
 4597UDC     C350559  17.314  11.860  11.901  0.2192 -0.3530 -0.3615
 4597UDC     C450560  17.439  11.776  11.874 -0.4488  0.0881 -0.1600
 4597UDC     C550561  17.473  11.681  11.988 -0.3036  0.5050 -0.4564
 4597UDC     C650562  17.493  11.741  12.131 -0.0482 -0.2388 -0.0433
 4597UDC     C750563  17.591  11.860  12.131  0.2393  0.0680 -1.0415
 4597UDC     C850564  17.611  11.949  12.251  0.9180 -0.7651  1.0469
 4597UDC     C950565  17.628  12.099  12.210 -0.0980 -0.4164  0.8833
 4597UDC    C1050566  17.768  12.153  12.246 -0.3391 -0.4181 -0.0665
 4597UDC    C1150567  17.792  12.304  12.205 -0.3537 -0.0743  0.7230
 4598UDC     C150568  14.321  17.195  16.297  0.2268  0.3964  0.0467
 4598UDC     C250569  14.363  17.299  16.184  0.7453 -0.0871  0.0041
 4598UDC     C350570  14.347  17.441  16.230 -0.1881 -0.1024 -0.6081
 4598UDC     C450571  14.228  17.474  16.322  1.0002 -0.3839 -0.3033
 4598UDC     C550572  14.239  17.604  16.415  0.1435  1.5725 -0.2205
 4598UDC     C650573  14.253  17.733  16.333 -0.6216 -0.2785  0.0981
 4598UDC     C750574  14.157  17.767  16.214 -0.5549 -0.0144  0.5605
 4598UDC     C850575  14.139  17.906  16.154  0.0116  0.4212 -0.0379
 4598UDC     C950576  14.102  17.899  16.005  0.0480  0.0584  1.3913
 4598UDC    C1050577  13.998  17.787  15.987  0.5937 -0.5748  0.8914
 4598UDC    C1150578  13.955  17.751  15.839  0.2162 -0.0597  0.0314
 4599UDC     C150579  15.898  10.655   8.254  0.0885  0.1708  0.8032
 4599UDC     C250580  15.932  10.570   8.123  1.5628  0.1730 -1.3955
 4599UDC     C350581  15.873  10.422   8.125 -0.0897 -0.1922  0.9265
 4599UDC     C450582  15.906  10.323   8.012 -0.7041 -0.1457 -0.2885
 4599UDC     C550583  15.808  10.203   8.004 -0.1630  0.4579  0.5496
 4599UDC     C650584  15.841  10.118   7.878 -1.0399 -0.3081  0.3563
 4599UDC     C750585  15.744  10.006   7.859  0.0859 -0.1995 -0.1600
 4599UDC     C850586  15.757   9.872   7.941  0.3126  0.5049  0.3846
 4599UDC     C950587  15.719   9.751   7.853  0.1659  0.1699  0.5940
 4599UDC    C1050588  15.585   9.681   7.882 -0.9861  0.6180  0.0521
 4599UDC    C1150589  15.522   9.623   7.754  0.2230 -0.1055  1.1837
 4600UDC     C150590   0.467   7.693  11.222 -0.9434 -0.3307 -0.9771
 4600UDC     C250591   0.367   7.605  11.296 -0.0900  0.7817 -0.5248
 4600UDC     C350592   0.366   7.600  11.447 -0.0869  1.1847 -0.1572
 4600UDC     C450593   0.314   7.463  11.514 -0.5338 -1.6751  0.5347
 4600UDC     C550594   0.337   7.454  11.663 -0.3465 -0.2575  0.5851
 4600UDC     C650595   0.318   7.589  11.735 -0.3950  0.4637  0.6169
 4600UDC     C750596   0.400   7.609  11.860 -0.0759 -0.3384 -0.2797
 4600UDC     C850597   0.390   7.750  11.919 -0.2177  0.7912 -1.1372
 4600UDC     C950598   0.280   7.810  12.006  0.2540  0.3235 -1.4509
 4600UDC    C1050599   0.277   7.967  12.025 -0.5708  0.0439  1.3077
 4600UDC    C1150600   0.144   8.008  12.091  0.7594 -0.1375  1.2634
 4601UDC     C150601   5.324  18.098  18.534  0.4057  0.2992 -0.3498
 4601UDC     C250602   5.199  18.005  18.501  0.7057  0.1223 -0.2329
 4601UDC     C350603   5.074  18.095  18.516  0.0989 -0.5614  0.1441
 4601UDC     C450604   4.949  18.015  18.563 -0.1180 -0.4435  0.2024
 4601UDC     C550605   4.870  17.935  18.460 -0.1982  0.0041 -0.0003
 4601UDC     C650606   4.767  18.025  18.389  0.7070 -0.6320 -0.0965
 4601UDC     C750607   4.696  17.951  18.275  0.3036 -1.0895  0.4958
 4601UDC     C850608   4.806  17.924  18.164 -0.1138  0.0489  1.8711
 4601UDC     C950609   4.862  18.062  18.120 -0.9571  0.5859  0.7701
 4601UDC    C1050610   4.935  18.041  17.980  0.5664 -0.3586  0.2481
 4601UDC    C1150611   4.830  17.981  17.881 -1.3106 -0.8473  0.7034
 4602UDC     C150612  17.835   8.680  18.478  0.1959 -0.2125 -1.1657
 4602UDC     C250613  17.821   8.726  18.627 -0.8367 -0.4732  0.8848
 4602UDC     C350614  17.844   8.605  18.725  0.2606 -0.7285 -0.0230
 4602UDC     C450615  17.833   8.640  18.871 -0.4514 -1.1092 -1.2478
 4602UDC     C550616  17.849   8.508  18.958 -0.1211 -0.2758 -0.7886
 4602UDC     C650617  17.953   8.402  18.915 -1.4261  1.0850  0.2020
 4602UDC     C750618  17.896   8.259  18.947  0.8726  0.4866  0.8738
 4602UDC     C850619  17.984   8.132  18.980  0.3252 -0.5054 -0.3409
 4602UDC     C950620  18.059   8.177  19.110 -0.4736  0.6472 -0.0502
 4602UDC    C1050621  18.084   8.085  19.236  0.4636 -0.1416  0.7924
 4602UDC    C1150622  18.176   7.965  19.199 -0.2375  0.4400  0.3311
 4603UDC     C150623  17.312   0.285  17.144  0.8189 -1.2104 -0.7856
 4603UDC     C250624  17.232   0.294  17.287 -0.5216 -0.0091  0.6158
 4603UDC     C350625  17.226   0.153  17.343 -0.3648  0.2625  0.2271
 4603UDC     C450626  17.141   0.131  17.469 -0.1725  0.3918 -0.6088
 4603UDC     C550627  17.004   0.208  17.459 -1.6460 -0.7947  0.1621
 4603UDC     C650628  16.907   0.188  17.580 -0.0870  0.6315  0.7612
 4603UDC     C750629  16.761   0.241  17.563 -0.6858 -0.5726  0.8953
 4603UDC     C850630  16.681   0.293  17.685  0.1736 -1.3993  0.8435
 4603UDC     C950631  16.685   0.448  17.702 -0.0264 -0.9303  1.1745
 4603UDC    C1050632  16.612   0.541  17.601 -1.0305  0.7409  0.1501
 4603UDC    C1150633  16.666   0.592  17.469  0.2405  0.2516  0.6722
 4604UDC     C150634  13.969  19.747   8.341 -0.0374 -0.3702 -0.6995
 4604UDC     C250635  14.114  19.718   8.376 -0.5144  0.7460  0.2938
 4604UDC     C350636  14.135  19.587   8.460 -0.0995  0.6131  0.2958
 4604UDC     C450637  14.280  19.612   8.521  0.1600 -0.2161  0.6759
 4604UDC     C550638  14.370  19.633   8.398  0.9646  0.2653  1.4393
 4604UDC     C650639  14.484  19.539   8.367  0.1703  0.0139  1.6860
 4604UDC     C750640  14.431  19.442   8.262 -0.2992 -0.3547 -0.0436
 4604UDC     C850641  14.450  19.292   8.272 -0.3684 -0.8024 -0.2021
 4604UDC     C950642  14.426  19.200   8.147 -0.3768 -0.1898 -0.0595
 4604UDC    C1050643  14.548  19.108   8.111  0.5176 -0.2366  0.9232
 4604UDC    C1150644  14.688  19.158   8.154 -0.0100 -0.4332 -0.5937
 4605UDC     C150645  17.510   3.949   5.970 -0.1190  1.3614 -0.1556
 4605UDC     C250646  17.451   3.908   6.108 -0.2203  0.0460 -0.2296
 4605UDC     C350647  17.412   4.030   6.201 -0.7271  0.6569  0.2002
 4605UDC     C450648  17.409   4.020   6.356 -0.2479  0.6358 -0.6891
 4605UDC     C550649  17.497   3.915   6.429 -0.1005  0.9230  0.4492
 4605UDC     C650650  17.534   3.922   6.579 -0.1561 -0.6568  0.1117
 4605UDC     C750651  17.611   3.797   6.621 -0.7709 -0.0519 -0.2253
 4605UDC     C850652  17.755   3.770   6.556  0.2257  1.0493 -0.9321
 4605UDC     C950653  17.845   3.890   6.566 -0.4045 -0.9493 -0.3760
 4605UDC    C1050654  17.896   3.939   6.700  0.5645  0.5207  0.5912
 4605UDC    C1150655  17.917   4.091   6.692 -0.0206 -0.2778 -0.9614
 4606UDC     C150656   9.129  17.898   3.002  0.2393  0.1181  1.0610
 4606UDC     C250657   9.100  17.749   3.034 -0.3752  0.0251 -0.9153
 4606UDC     C350658   9.084  17.682   2.897 -0.7696  0.0213 -0.9253
 4606UDC     C450659   8.988  17.562   2.914  0.2893  0.8007  1.1724
 4606UDC     C550660   8.969  17.510   3.056 -0.0101 -0.0059  0.1955
 4606UDC     C650661   9.057  17.397   3.119  0.3033  0.2358 -0.1327
 4606UDC     C750662   8.997  17.321   3.244  0.2330  0.0043  0.6140
 4606UDC     C850663   9.080  17.188   3.270  0.1903 -0.7532  0.6141
 4606UDC     C950664   9.027  17.068   3.192 -0.1294 -0.6080  0.0795
 4606UDC    C1050665   9.118  16.940   3.223  0.8708 -0.4356 -0.0420
 4606UDC    C1150666   9.150  16.944   3.370 -0.8059  0.6129 -1.9649
 4607UDC     C150667   2.283   5.330  16.965 -0.4785 -0.2212 -1.8280
 4607UDC     C250668   2.211   5.373  17.102 -0.7480  1.0066  0.0487
 4607UDC     C350669   2.063   5.360  17.128 -1.0692  0.9173 -0.5872
 4607UDC     C450670   2.029   5.209  17.141 -0.4494 -0.6393  1.1836
 4607UDC     C550671   1.886   5.174  17.154  0.9119 -1.1473 -0.1006
 4607UDC     C650672   1.875   5.023  17.165  0.8087 -0.3211  0.1552
 4607UDC     C750673   1.747   4.984  17.242 -0.3848  0.6812 -0.2519
 4607UDC     C850674   1.730   4.828  17.228  0.1475 -0.1431 -0.1296
 4607UDC     C950675   1.656   4.763  17.348 -0.3370 -0.3225  0.8831
 4607UDC    C1050676   1.733   4.774  17.477  0.2507  0.3092  0.3298
 4607UDC    C1150677   1.659   4.749  17.613  0.8334  0.6516 -0.5656
 4608UDC     C150678  16.452   6.961   9.264  0.0511  0.4876 -0.0129
 4608UDC     C250679  16.420   7.096   9.191  0.1378  0.1644  0.3033
 4608UDC     C350680  16.300   7.080   9.094 -0.2997 -0.3659  0.5856
 4608UDC     C450681  16.196   7.197   9.114  0.0860 -0.1506  0.3482
 4608UDC     C550682  16.243   7.343   9.066  0.4975  0.0840 -0.3221
 4608UDC     C650683  16.140   7.448   9.103  0.3345  0.5953 -0.9245
 4608UDC     C750684  16.021   7.447   9.004  0.1889  0.5591 -0.3069
 4608UDC     C850685  16.040   7.490   8.864 -0.0030 -0.3296  0.0483
 4608UDC     C950686  15.905   7.517   8.793 -0.5611  0.9473 -0.4108
 4608UDC    C1050687  15.809   7.586   8.900 -0.0792  0.4602  0.7858
 4608UDC    C1150688  15.697   7.673   8.835 -0.6327 -0.4218  0.3863
 4609UDC     C150689   6.928  12.019  14.689  0.1827 -0.6917  1.0462
 4609UDC     C250690   6.946  11.882  14.745  0.1298 -0.7215 -0.4917
 4609UDC     C350691   6.821  11.852  14.818  0.7780  0.3440  0.1867
 4609UDC     C450692   6.816  11.698  14.844 -0.2909 -1.3844 -0.8201
 4609UDC     C550693   6.779  11.603  14.729 -0.4542  1.0117  0.8659
 4609UDC     C650694   6.731  11.461  14.778 -0.3564  1.1398  0.4416
 4609UDC     C750695   6.816  11.425  14.893 -0.8746  0.1784 -0.2485
 4609UDC     C850696   6.753  11.308  14.971 -0.9781 -0.3853 -0.8871
 4609UDC     C950697   6.822  11.311  15.113 -0.0145  1.0350  0.1706
 4609UDC    C1050698   6.820  11.187  15.210  0.8923 -0.4438  0.5838
 4609UDC    C1150699   6.682  11.153  15.276 -0.3074  0.1672 -0.4302
 4610UDC     C150700   1.153   9.777   6.678  0.0293 -0.2849  0.1433
 4610UDC     C250701   1.262   9.735   6.778 -0.6207  0.3113 -0.4667
 4610UDC     C350702   1.220   9.623   6.872  0.5746 -0.2215 -0.0831
 4610UDC     C450703   1.190   9.503   6.786 -0.2545  0.8231  0.0079
 4610UDC     C550704   1.238   9.383   6.880  0.6777 -0.0780  0.3794
 4610UDC     C650705   1.244   9.395   7.037  0.7098 -0.8270  0.8503
 4610UDC     C750706   1.267   9.272   7.120  0.1490 -0.9422  0.5149
 4610UDC     C850707   1.414   9.228   7.091  0.1639  0.7570  0.6037
 4610UDC     C950708   1.441   9.075   7.125  0.6092  0.9788 -0.0818
 4610UDC    C1050709   1.380   8.985   7.007 -0.8985 -0.2107 -0.3104
 4610UDC    C1150710   1.435   9.040   6.870  0.3911  0.4152  0.5213
 4611UDC     C150711  19.325   1.671   1.804 -0.7645 -0.9374 -0.4508
 4611UDC     C250712  19.362   1.591   1.926  0.3018  0.5402 -0.0894
 4611UDC     C350713  19.487   1.637   1.998  0.3485  0.5428  0.3684
 4611UDC     C450714  19.567   1.538   2.088 -0.7420 -0.9936 -1.2983
 4611UDC     C550715  19.503   1.522   2.225  0.7130 -0.0949 -0.5976
 4611UDC     C650716  19.587   1.444   2.335  0.1478  0.6132 -0.0954
 4611UDC     C750717  19.571   1.501   2.481 -0.7252  0.2849 -0.1129
 4611UDC     C850718  19.686   1.440   2.574  0.3615  0.6639  0.5645
 4611UDC     C950719  19.666   1.479   2.714  0.9254  0.4816 -0.6153
 4611UDC    C1050720  19.741   1.612   2.726 -0.0645 -0.9241 -0.7146
 4611UDC    C1150721  19.657   1.737   2.714  0.3437 -1.0942  0.2750
 4612UDC     C150722  17.473   4.486  15.328  0.4847  0.0453 -0.2919
 4612UDC     C250723  17.437   4.632  15.345  0.3328  1.0767 -1.1751
 4612UDC     C350724  17.530   4.721  15.266 -0.4229 -1.2351  0.0335
 4612UDC     C450725  17.536   4.866  15.308  0.3369 -0.2429 -1.0186
 4612UDC     C550726  17.546   4.898  15.461 -0.5765 -0.7368  0.0124
 4612UDC     C650727  17.555   5.049  15.460 -0.3920  0.0404 -1.8887
 4612UDC     C750728  17.411   5.116  15.489 -0.4784  0.7371  0.9130
 4612UDC     C850729  17.313   5.128  15.368 -1.2156 -0.0630 -0.3907
 4612UDC     C950730  17.172   5.167  15.402  0.1364  0.9022 -0.7159
 4612UDC    C1050731  17.088   5.049  15.450  0.7327 -0.1725  0.3053
 4612UDC    C1150732  16.973   5.024  15.346  0.2541  0.1100 -0.3480
 4613UDC     C150733  19.525  15.127  13.079 -0.4088 -1.3152 -0.6086
 4613UDC     C250734  19.558  15.113  13.237  0.2169  0.4102  0.5977
 4613UDC     C350735  19.710  15.107  13.268 -0.1568 -1.2071 -0.1803
 4613UDC     C450736  19.752  15.214  13.367 -0.1678  0.9561  0.3488
 4613UDC     C550737  19.902  15.240  13.367 -0.1304  0.8921  0.0123
 4613UDC     C650738  19.955  15.339  13.479 -0.4655  0.2153  0.7852
 4613UDC     C750739  20.110  15.329  13.500  0.0295 -0.6897 -0.6990
 4613UDC     C850740  20.150  15.465  13.566 -0.7189 -1.2781 -0.4677
 4613UDC     C950741  20.108  15.482  13.715  1.1206 -0.8466  0.3193
 4613UDC    C1050742  20.100  15.356  13.802  0.1219  1.3333 -0.1967
 4613UDC    C1150743  20.241  15.296  13.830 -0.4551  0.9718  0.8293
 4614UDC     C150744  16.959  10.840   6.050  0.0260 -0.4697 -0.0510
 4614UDC     C250745  17.071  10.940   6.041  0.2753 -0.3964 -0.1140
 4614UDC     C350746  17.056  11.015   5.907 -0.4070 -0.1456 -0.3895
 4614UDC     C450747  17.107  11.163   5.896 -0.8769  0.4196  0.2789
 4614UDC     C550748  17.260  11.182   5.893 -0.1926  0.2554 -0.9066
 4614UDC     C650749  17.279  11.323   5.856  0.1464 -0.3240 -0.3934
 4614UDC     C750750  17.432  11.353   5.840  0.4803  0.8196 -0.4121
 4614UDC     C850751  17.471  11.489   5.777 -0.0808  0.3269  0.1812
 4614UDC     C950752  17.405  11.564   5.661 -0.2572 -0.8210  0.5716
 4614UDC    C1050753  17.485  11.684   5.623 -0.2793 -1.1895 -0.6929
 4614UDC    C1150754  17.411  11.821   5.639 -0.6204  0.3979 -0.6114
 4615UDC     C150755   1.669   7.144   4.920 -0.3884  0.2423  0.1470
 4615UDC     C250756   1.819   7.164   4.884 -0.4569 -0.5746  0.1573
 4615UDC     C350757   1.903   7.040   4.920  0.6527  0.4687  0.9241
 4615UDC     C450758   1.847   6.902   4.890 -0.3515  0.4148 -0.5181
 4615UDC     C550759   1.868   6.878   4.744 -0.7729  1.0992  0.1444
 4615UDC     C650760   2.003   6.803   4.722 -0.1731 -0.2640  0.2206
 4615UDC     C750761   2.002   6.662   4.773 -0.5103  1.1354 -1.0639
 4615UDC     C850762   1.993   6.547   4.667 -0.4483 -0.1740 -0.5122
 4615UDC     C950763   2.005   6.407   4.733  0.2429 -0.3773  0.8970
 4615UDC    C1050764   1.904   6.397   4.843  1.0577 -0.0775  0.7653
 4615UDC    C1150765   1.937   6.275   4.940 -0.3816 -0.8622  0.4074
 4616UDC     C150766  11.019  11.515   9.870  0.3181 -0.4365  0.2535
 4616UDC     C250767  11.122  11.427   9.944  0.1869  0.5097 -0.4004
 4616UDC     C350768  11.045  11.300   9.982 -0.1922  1.1886 -0.0857
 4616UDC     C450769  10.902  11.334  10.021  0.2797 -0.0238 -0.6739
 4616UDC     C550770  10.804  11.227  10.076  0.4569  0.5326 -0.0725
 4616UDC     C650771  10.690  11.208   9.979 -1.1685 -1.1762  0.7903
 4616UDC     C750772  10.737  11.165   9.839 -0.1936 -0.1377 -1.2685
 4616UDC     C850773  10.623  11.141   9.747 -0.5448 -1.0986 -0.1045
 4616UDC     C950774  10.558  11.250   9.654  0.1507 -0.2785 -1.0799
 4616UDC    C1050775  10.619  11.276   9.515  0.4070  0.5445  1.1963
 4616UDC    C1150776  10.747  11.349   9.522  1.0554 -0.1415 -0.0797
 4617UDC     C150777   7.008   9.737  13.076  0.3898 -0.0852 -0.3072
 4617UDC     C250778   6.885   9.655  13.034  0.2428 -1.0850  0.5561
 4617UDC     C350779   6.876   9.601  12.888 -0.7929  0.0425  0.3663
 4617UDC     C450780   6.752   9.523  12.840 -0.7822 -1.4293  0.7058
 4617UDC     C550781   6.732   9.540  12.686 -0.9032  0.9308 -0.1293
 4617UDC     C650782   6.605   9.463  12.656 -0.5313 -1.1531  0.1731
 4617UDC     C750783   6.506   9.501  12.771  0.3448  0.2638 -0.0821
 4617UDC     C850784   6.352   9.503  12.754 -0.1459 -1.2417  0.0305
 4617UDC     C950785   6.287   9.402  12.847  0.8300  0.0758 -0.0781
 4617UDC    C1050786   6.311   9.258  12.820 -0.4827 -0.1224  0.2322
 4617UDC    C1150787   6.278   9.216  12.682 -0.2669 -1.4694  0.1018
 4618UDC     C150788   7.743  11.858   8.877  0.4256  0.6377 -0.4724
 4618UDC     C250789   7.820  11.973   8.944  0.0063  0.2802 -0.0325
 4618UDC     C350790   7.763  12.109   8.907 -0.2146 -0.8493 -0.0167
 4618UDC     C450791   7.872  12.218   8.912  0.5925 -0.1412 -1.4829
 4618UDC     C550792   7.904  12.294   8.782 -0.1080 -0.0967  0.3806
 4618UDC     C650793   7.991  12.417   8.774 -0.5595  0.3652 -0.0875
 4618UDC     C750794   8.075  12.418   8.637  0.4096 -0.0544  0.2417
 4618UDC     C850795   8.165  12.536   8.605  0.5413 -0.1932  0.9759
 4618UDC     C950796   8.193  12.523   8.457 -0.7843 -0.5297  0.7192
 4618UDC    C1050797   8.283  12.634   8.397 -0.0929  0.4045  0.1253
 4618UDC    C1150798   8.254  12.666   8.245  0.3668  0.3785  0.4953
 4619UDC     C150799   9.532   2.706   1.319  0.4962  1.5432  1.3731
 4619UDC     C250800   9.679   2.650   1.313 -0.8788 -0.0517  1.6848
 4619UDC     C350801   9.719   2.584   1.183  0.0904  0.3906 -0.0115
 4619UDC     C450802   9.767   2.688   1.074  0.3178 -0.3248  0.0206
 4619UDC     C550803   9.683   2.679   0.934  0.0876  0.0126  0.1202
 4619UDC     C650804   9.539   2.727   0.939  1.2279 -1.0496  0.2514
 4619UDC     C750805   9.510   2.879   0.954 -0.1730  0.3882  0.9090
 4619UDC     C850806   9.389   2.920   0.861  0.2473  0.3085  0.2139
 4619UDC     C950807   9.358   3.073   0.850 -0.8252  0.6630 -0.6537
 4619UDC    C1050808   9.306   3.134   0.981  0.5698 -0.1742  0.1718
 4619UDC    C1150809   9.180   3.078   1.051  0.2498 -0.5547  0.3895
 4620UDC     C150810  16.300   7.076   9.993  0.7487  1.3517  0.0655
 4620UDC     C250811  16.208   6.955  10.012 -0.9064  0.3181 -1.2538
 4620UDC     C350812  16.287   6.822  10.053  0.4589  0.1598 -0.8667
 4620UDC     C450813  16.198   6.701  10.035 -0.9540 -0.2772 -0.9554
 4620UDC     C550814  16.291   6.581  10.082  0.2574 -0.4954 -0.1410
 4620UDC     C650815  16.376   6.555   9.955 -0.9454 -0.7506  0.4353
 4620UDC     C750816  16.476   6.444   9.971  0.5260 -0.1017  0.0552
 4620UDC     C850817  16.581   6.465   9.858  0.2161 -0.4689 -0.2930
 4620UDC     C950818  16.675   6.346   9.836 -0.6881  0.1829  0.0497
 4620UDC    C1050819  16.634   6.291   9.696 -1.1021 -0.3649 -1.3617
 4620UDC    C1150820  16.611   6.397   9.595 -0.8507 -0.1200  0.5230
 4621UDC     C150821  14.482   2.768   5.994  0.0569  0.3540  0.1230
 4621UDC     C250822  14.384   2.717   6.096  0.4090  0.4557 -0.2164
 4621UDC     C350823  14.430   2.575   6.135 -1.0490 -0.7473 -0.8000
 4621UDC     C450824  14.585   2.580   6.147 -1.0841  0.1947  0.1455
 4621UDC     C550825  14.653   2.445   6.177  0.5784 -0.3314  0.2117
 4621UDC     C650826  14.641   2.336   6.075 -0.3569 -0.0304 -0.2979
 4621UDC     C750827  14.728   2.218   6.097 -0.2401  1.3581  0.0673
 4621UDC     C850828  14.752   2.136   5.970 -0.0483  0.1230  0.3677
 4621UDC     C950829  14.646   2.031   5.928  0.2418 -0.4181  0.0108
 4621UDC    C1050830  14.669   1.941   5.804  1.6139  0.5495  0.4797
 4621UDC    C1150831  14.791   1.849   5.795 -0.0076  0.8861  0.2945
 4622UDC     C150832  14.154   9.050  17.862 -0.2807  0.3259 -0.3546
 4622UDC     C250833  14.053   9.164  17.896  0.3216  0.3106 -0.1767
 4622UDC     C350834  14.071   9.240  18.033  0.7048  0.7630  0.3549
 4622UDC     C450835  14.219   9.269  18.077 -0.0975  1.1929 -0.7432
 4622UDC     C550836  14.253   9.293  18.229 -0.4707  0.1618 -1.2748
 4622UDC     C650837  14.402   9.317  18.256  0.1501  0.1535  0.5383
 4622UDC     C750838  14.470   9.428  18.167  0.4144 -0.3592 -0.0378
 4622UDC     C850839  14.620   9.433  18.203  0.1296 -0.8131  0.1868
 4622UDC     C950840  14.696   9.302  18.171  0.5933  0.0452  0.3594
 4622UDC    C1050841  14.838   9.277  18.235 -0.2097  0.2760  0.2733
 4622UDC    C1150842  14.893   9.171  18.142  0.9313 -0.0521  0.5717
 4623UDC     C150843   5.302   8.511  10.229  1.5633  0.4745  0.3535
 4623UDC     C250844   5.353   8.655  10.238 -0.2385 -0.3173 -0.1025
 4623UDC     C350845   5.493   8.660  10.168 -0.0309  1.0162 -0.1529
 4623UDC     C450846   5.571   8.788  10.184 -0.4899 -1.2389  1.2018
 4623UDC     C550847   5.718   8.773  10.145 -0.6526 -0.4523 -0.0855
 4623UDC     C650848   5.820   8.764  10.267  0.1378 -0.0054 -0.1939
 4623UDC     C750849   5.904   8.886  10.286 -0.1539  0.7526  0.4670
 4623UDC     C850850   6.041   8.878  10.224  0.3438  0.1055  0.9627
 4623UDC     C950851   6.137   8.955  10.317 -0.3088  0.4540 -1.3971
 4623UDC    C1050852   6.110   8.916  10.461 -0.2325 -0.0424  0.7575
 4623UDC    C1150853   6.189   9.010  10.553 -0.0936  0.0194 -0.2579
 4624UDC     C150854  13.264  10.494  11.629 -1.0737 -0.0905  0.2052
 4624UDC     C250855  13.373  10.462  11.726 -0.3249  0.1655  0.4982
 4624UDC     C350856  13.402  10.305  11.708  0.0689  0.0706  0.6767
 4624UDC     C450857  13.429  10.263  11.566 -1.1119  0.2556  0.6150
 4624UDC     C550858  13.578  10.232  11.528 -0.3522  0.1033  0.7853
 4624UDC     C650859  13.618  10.133  11.411  0.0369 -0.8178  0.0873
 4624UDC     C750860  13.770  10.107  11.385 -0.7834 -0.0747 -0.7284
 4624UDC     C850861  13.788   9.989  11.289 -1.6117 -0.0006  0.5906
 4624UDC     C950862  13.932   9.922  11.301 -0.6997  0.8068 -0.6231
 4624UDC    C1050863  13.939   9.793  11.213 -0.1923 -0.2825 -0.8063
 4624UDC    C1150864  14.055   9.715  11.271  1.3162 -0.2302 -0.0333
 4625UDC     C150865   4.566  17.909   2.946  0.0111  0.7263  0.7550
 4625UDC     C250866   4.449  17.807   2.958 -0.0056  0.2514 -0.3747
 4625UDC     C350867   4.435  17.706   2.840  0.2202 -0.2489  0.1806
 4625UDC     C450868   4.292  17.644   2.843 -1.2906  0.7262 -0.3709
 4625UDC     C550869   4.272  17.559   2.715  0.2098 -0.8853  0.5831
 4625UDC     C650870   4.207  17.645   2.611  0.7871 -1.3517 -0.4862
 4625UDC     C750871   4.142  17.777   2.670  0.0095 -1.2184  0.9993
 4625UDC     C850872   4.070  17.864   2.565 -0.6238  0.4784  0.1406
 4625UDC     C950873   4.150  17.925   2.453 -0.0696 -0.5882  0.6203
 4625UDC    C1050874   4.205  18.058   2.498 -1.7930 -0.0773 -0.5413
 4625UDC    C1150875   4.293  18.130   2.392 -0.9117  0.2084 -0.4277
 4626UDC     C150876  12.541  18.889  19.125 -0.3740 -0.4357 -0.0829
 4626UDC     C250877  12.654  18.780  19.148  0.0800 -1.2583  0.5436
 4626UDC     C350878  12.620  18.670  19.243 -0.4224  0.8086  0.0457
 4626UDC     C450879  12.550  18.727  19.368  1.3238  0.0892 -0.2340
 4626UDC     C550880  12.639  18.818  19.457 -0.5772  0.5632  0.0230
 4626UDC     C650881  12.588  18.889  19.583  0.3450 -0.5244 -0.2206
 4626UDC     C750882  12.488  19.008  19.580  0.4018  0.3788 -0.9482
 4626UDC     C850883  12.439  19.086  19.707 -0.5539 -0.4914  0.0914
 4626UDC     C950884  12.559  19.176  19.760 -0.4481  0.4540 -0.5221
 4626UDC    C1050885  12.581  19.299  19.667  1.4594 -0.3521 -0.2644
 4626UDC    C1150886  12.613  19.434  19.732 -0.9580 -0.2872 -0.8534
 4627UDC     C150887  19.146   4.434  15.186  0.4917 -0.2716  0.1037
 4627UDC     C250888  19.174   4.550  15.281 -1.1996  0.3278  0.3032
 4627UDC     C350889  19.328   4.564  15.305 -0.0616  1.3548  0.0262
 4627UDC     C450890  19.378   4.415  15.329  0.6504 -0.2869  0.0836
 4627UDC     C550891  19.529   4.389  15.333  0.0102 -0.0665  0.1384
 4627UDC     C650892  19.562   4.263  15.244 -0.3500 -1.5796 -0.3137
 4627UDC     C750893  19.692   4.184  15.279 -0.1584 -0.5626 -0.0219
 4627UDC     C850894  19.825   4.266  15.282 -0.9717  0.6050  0.6153
 4627UDC     C950895  19.954   4.180  15.246 -0.7761  1.1184  1.2204
 4627UDC    C1050896  20.084   4.266  15.229  1.1719  0.3079  0.1195
 4627UDC    C1150897  20.196   4.169  15.203  0.1635 -0.8419 -0.2462
 4628UDC     C150898  15.269  18.569  10.133  0.2347  0.4682 -0.3502
 4628UDC     C250899  15.343  18.604  10.010  0.3164 -0.3252  0.2448
 4628UDC     C350900  15.388  18.480   9.931 -0.6244 -0.9485 -0.0406
 4628UDC     C450901  15.466  18.386  10.030 -0.0614 -0.1240  0.9868
 4628UDC     C550902  15.600  18.451  10.064 -0.5064 -0.5212 -1.0840
 4628UDC     C650903  15.605  18.444  10.221 -0.0459 -0.1548  0.4081
 4628UDC     C750904  15.729  18.510  10.286  0.1080  0.1528  0.6652
 4628UDC     C850905  15.730  18.520  10.442 -0.0184  0.3840  1.2379
 4628UDC     C950906  15.597  18.586  10.479  0.4625 -0.2068 -1.2270
 4628UDC    C1050907  15.598  18.742  10.436 -0.0459 -0.6919 -0.0505
 4628UDC    C1150908  15.517  18.849  10.506  0.6586 -1.1278 -0.2115
 4629UDC     C150909  10.286  19.275   3.298 -0.7689 -0.5895  1.1310
 4629UDC     C250910  10.307  19.134   3.236 -1.3553  0.6957 -0.6590
 4629UDC     C350911  10.403  19.054   3.335 -0.0296 -2.0292 -0.1579
 4629UDC     C450912  10.357  18.913   3.333  0.1586 -1.1722  0.0436
 4629UDC     C550913  10.409  18.831   3.445  0.1212 -0.3786 -0.2812
 4629UDC     C650914  10.330  18.696   3.463  0.2383 -0.3157  0.1913
 4629UDC     C750915  10.177  18.736   3.471  0.0351 -0.2704  0.1923
 4629UDC     C850916  10.070  18.630   3.513 -0.7196  0.2160 -0.1127
 4629UDC     C950917  10.080  18.593   3.665 -0.1969 -0.6345  0.3996
 4629UDC    C1050918   9.968  18.499   3.702  0.9343 -0.0995 -1.1643
 4629UDC    C1150919   9.832  18.568   3.688  0.0478 -0.0857 -0.3573
 4630UDC     C150920   6.315  18.890   1.633  0.8617 -0.2262 -0.7984
 4630UDC     C250921   6.413  18.776   1.622  0.1714 -0.2492 -0.4006
 4630UDC     C350922   6.348  18.643   1.612  0.9680  0.5136 -0.1714
 4630UDC     C450923   6.431  18.519   1.660  0.1468 -0.0945  0.0190
 4630UDC     C550924   6.392  18.369   1.663 -0.3432  0.4212 -1.3414
 4630UDC     C650925   6.498  18.278   1.721 -0.2252  0.3298  0.5803
 4630UDC     C750926   6.552  18.342   1.849  1.1103  0.7868 -0.0098
 4630UDC     C850927   6.473  18.286   1.980 -0.5299  1.2859  0.6106
 4630UDC     C950928   6.562  18.293   2.104  0.0070  0.9680  0.7220
 4630UDC    C1050929   6.617  18.153   2.145 -0.2778  0.1648 -0.1292
 4630UDC    C1150930   6.720  18.077   2.052 -0.0964 -0.0003 -0.3339
 4631UDC     C150931  17.333  14.845  18.679  0.8519  0.6917  0.9530
 4631UDC     C250932  17.378  14.724  18.764  0.0015 -0.0938  0.7292
 4631UDC     C350933  17.284  14.670  18.877 -0.6404 -0.9957  0.0537
 4631UDC     C450934  17.149  14.646  18.821 -0.3605  0.6182 -0.1169
 4631UDC     C550935  17.036  14.591  18.918  0.1089 -0.4304  0.2899
 4631UDC     C650936  16.999  14.686  19.039 -1.2485 -0.5945 -0.7268
 4631UDC     C750937  17.050  14.642  19.177 -0.3416 -0.0742  0.2812
 4631UDC     C850938  16.943  14.656  19.284 -0.7853  0.1211  0.9543
 4631UDC     C950939  16.969  14.582  19.416 -0.5386  0.1810 -0.9277
 4631UDC    C1050940  16.856  14.606  19.519  0.3492  0.2344 -0.2075
 4631UDC    C1150941  16.791  14.742  19.509 -0.1306  0.3301 -0.4275
 4632UDC     C150942   1.882   9.030  17.324 -0.0343 -0.6248  0.3283
 4632UDC     C250943   2.021   8.976  17.345 -0.1946 -0.3586  0.6010
 4632UDC     C350944   2.042   8.859  17.431 -0.7408  0.1079  0.1109
 4632UDC     C450945   2.176   8.805  17.420 -0.3616  0.0480 -0.1710
 4632UDC     C550946   2.259   8.766  17.289  0.2489 -0.3614  0.2373
 4632UDC     C650947   2.222   8.633  17.215  0.5358 -0.8141 -0.3540
 4632UDC     C750948   2.148   8.645  17.079 -0.6363 -0.6785 -0.4901
 4632UDC     C850949   1.998   8.641  17.077  0.3120 -0.4514 -0.2905
 4632UDC     C950950   1.964   8.673  16.932 -1.2816  0.3846 -0.6169
 4632UDC    C1050951   2.056   8.783  16.870 -0.0650 -0.7683 -0.1061
 4632UDC    C1150952   2.010   8.807  16.722 -0.7368  0.5945  0.0970
 4633UDC     C150953  11.277  13.798  16.619  0.0722  0.1001  0.0870
 4633UDC     C250954  11.237  13.736  16.483 -0.2665 -1.3090  0.9807
 4633UDC     C350955  11.358  13.709  16.390 -0.4486 -0.0206 -1.1339
 4633UDC     C450956  11.437  13.828  16.336  0.5378 -0.4621  0.2447
 4633UDC     C550957  11.566  13.787  16.271  1.2486 -0.2899  0.1754
 4633UDC     C650958  11.644  13.713  16.377 -1.1700 -0.4486 -0.7825
 4633UDC     C750959  11.743  13.614  16.309 -1.2907  0.3544 -0.1184
 4633UDC     C850960  11.680  13.482  16.243  0.2139  0.2492  0.2983
 4633UDC     C950961  11.757  13.369  16.176 -0.1034  0.4896  0.1760
 4633UDC    C1050962  11.908  13.383  16.139  0.1673  0.2722  0.4099
 4633UDC    C1150963  12.006  13.401  16.263  1.1980  0.0297 -0.5323
 4634UDC     C150964  14.960  16.622   0.893 -0.2423 -0.2852 -0.5852
 4634UDC     C250965  15.085  16.630   0.805  0.1473  0.4715 -1.0300
 4634UDC     C350966  15.188  16.719   0.879  1.1303 -0.9386  0.6393
 4634UDC     C450967  15.146  16.856   0.939 -0.8346 -0.3582  0.0575
 4634UDC     C550968  15.262  16.907   1.032  0.2044 -0.0863  0.2634
 4634UDC     C650969  15.234  17.054   1.080 -0.0817  0.0593 -0.5396
 4634UDC     C750970  15.339  17.120   1.168  0.2217  0.1695 -0.9965
 4634UDC     C850971  15.285  17.261   1.212 -0.5453  0.0854 -0.3555
 4634UDC     C950972  15.239  17.256   1.357 -1.0113 -0.0737 -0.5273
 4634UDC    C1050973  15.204  17.387   1.426 -0.3609 -0.7661  0.1253
 4634UDC    C1150974  15.239  17.390   1.578  0.3253  0.6125 -0.4631
 4635UDC     C150975   1.044  11.874  12.997 -0.3834  0.0174 -0.7001
 4635UDC     C250976   1.130  11.745  13.016 -0.1412 -0.1720  0.5508
 4635UDC     C350977   1.272  11.738  12.947  0.8618 -0.3001 -0.1816
 4635UDC     C450978   1.370  11.831  13.013 -1.0386  0.4904  1.4912
 4635UDC     C550979   1.400  11.799  13.163 -0.0992  0.4010  0.3647
 4635UDC     C650980   1.508  11.883  13.231 -0.5495  0.6752 -0.3598
 4635UDC     C750981   1.565  11.826  13.369  0.5751  1.1517  1.0882
 4635UDC     C850982   1.719  11.823  13.389 -0.5497 -0.3617 -0.0261
 4635UDC     C950983   1.804  11.913  13.295  0.8464 -0.5512 -0.0824
 4635UDC    C1050984   1.945  11.962  13.340 -0.8735  0.7004  0.2133
 4635UDC    C1150985   1.950  12.030  13.475 -0.1292 -0.2051  0.0598
 4636UDC     C150986  17.722   6.244  13.640  0.3203  0.0965 -0.6035
 4636UDC     C250987  17.757   6.179  13.782  0.8907  0.3909  0.3426
 4636UDC     C350988  17.711   6.268  13.891 -1.1385 -0.7649  0.2947
 4636UDC     C450989  17.565   6.254  13.934 -0.3417  0.2873  0.4540
 4636UDC     C550990  17.516   6.374  14.012  0.1983 -0.6179  0.1806
 4636UDC     C650991  17.516   6.516  13.947 -0.7150 -0.0128 -0.5001
 4636UDC     C750992  17.407   6.527  13.842 -0.3945  0.1835  0.9421
 4636UDC     C850993  17.279   6.547  13.921 -0.6429 -0.1261 -0.9441
 4636UDC     C950994  17.283   6.659  14.033 -0.6490  0.2954  0.0812
 4636UDC    C1050995  17.149   6.672  14.097 -0.1492 -1.2898 -0.3698
 4636UDC    C1150996  17.160   6.785  14.196 -1.1239  0.0313 -0.0441
 4637UDC     C150997  17.060   9.657  17.750 -0.0014 -0.2431  0.2003
 4637UDC     C250998  17.174   9.605  17.651 -0.7235 -0.4962 -0.4628
 4637UDC     C350999  17.226   9.706  17.548  0.2510  0.2977 -0.1798
 4637UDC     C451000  17.319   9.645  17.444 -0.5583 -0.3102  0.5591
 4637UDC     C551001  17.404   9.761  17.390  0.4547  0.1088 -0.3295
 4637UDC     C651002  17.465   9.728  17.257 -0.0007  0.3081  0.4404
 4637UDC     C751003  17.524   9.586  17.281 -0.5276 -0.3600 -0.7846
 4637UDC     C851004  17.590   9.535  17.157 -1.3868 -0.3840  0.1966
 4637UDC     C951005  17.708   9.443  17.191  0.2607 -0.4091  0.0128
 4637UDC    C1051006  17.777   9.407  17.054 -0.6162  0.3127 -0.9721
 4637UDC    C1151007  17.903   9.310  17.052  0.0792  0.6432 -0.5692
 4638UDC     C151008  16.827   6.077   8.561 -0.0326  0.0344  0.1986
 4638UDC     C251009  16.795   5.948   8.631  0.0481 -0.6468 -0.6852
 4638UDC     C351010  16.718   5.960   8.766 -0.9004  0.5419 -1.0313
 4638UDC     C451011  16.704   5.822   8.842  0.6563 -0.2430  0.0209
 4638UDC     C551012  16.625   5.704   8.788 -0.7503 -0.0743  0.3695
 4638UDC     C651013  16.602   5.586   8.896 -0.0888  0.0609  0.2525
 4638UDC     C751014  16.611   5.440   8.843 -0.2593 -0.0741 -0.3610
 4638UDC     C851015  16.686   5.339   8.941 -0.2593 -0.7667  1.0611
 4638UDC     C951016  16.760   5.208   8.890  0.3908  0.7707  0.3633
 4638UDC    C1051017  16.821   5.097   8.977  1.2761  0.8988 -0.0430
 4638UDC    C1151018  16.867   4.973   8.895  0.1900 -0.9287 -0.0368
 4639UDC     C151019   3.724  16.470   0.327 -0.1078 -0.3842 -0.4144
 4639UDC     C251020   3.824  16.585   0.293  0.9655  0.4695  1.4767
 4639UDC     C351021   3.748  16.709   0.222  0.8954  1.4229  0.1119
 4639UDC     C451022   3.841  16.824   0.166  1.3933 -0.0833 -1.1648
 4639UDC     C551023   3.901  16.814   0.027  0.0515  0.3109  0.4160
 4639UDC     C651024   3.838  16.873  -0.094  0.4087 -0.2025 -0.1209
 4639UDC     C751025   3.909  16.830  -0.227 -0.0314 -0.6552 -0.1173
 4639UDC     C851026   3.908  16.683  -0.266 -0.0555 -0.4582 -0.6729
 4639UDC     C951027   3.908  16.639  -0.413  0.8174  0.5257 -0.2342
 4639UDC    C1051028   4.044  16.637  -0.484 -0.0574 -0.0216  0.1307
 4639UDC    C1151029   4.134  16.523  -0.437 -0.4244 -0.8785 -0.8380
 4640UDC     C151030   1.074   5.551  19.418 -0.8312  0.8300 -0.4278
 4640UDC     C251031   1.212   5.594  19.488  0.6062 -0.1832  0.3540
 4640UDC     C351032   1.340   5.558  19.421  0.7049  0.2029  0.5829
 4640UDC     C451033   1.459   5.633  19.474  0.5096 -0.1609 -0.0165
 4640UDC     C551034   1.544   5.534  19.550 -0.3940 -0.1667 -0.4295
 4640UDC     C651035   1.628   5.416  19.490 -0.2306  0.2186 -0.5328
 4640UDC     C751036   1.741   5.352  19.578  1.3978 -0.2541  1.2750
 4640UDC     C851037   1.681   5.270  19.686  0.2885 -0.1481 -0.1081
 4640UDC     C951038   1.794   5.196  19.771  1.0247 -0.3662  0.1176
 4640UDC    C1051039   1.757   5.089  19.875  0.8285 -0.2202  0.5920
 4640UDC    C1151040   1.809   4.955  19.816 -0.0577  0.0159  0.0525
 4641UDC     C151041  10.444  10.410  11.329 -0.5109 -0.5310 -0.3984
 4641UDC     C251042  10.301  10.468  11.357 -0.5676 -0.4066 -0.4276
 4641UDC     C351043  10.248  10.521  11.219  0.3399  0.0864 -0.4319
 4641UDC     C451044  10.091  10.538  11.211 -0.7227  0.5826 -1.1811
 4641UDC     C551045  10.044  10.669  11.268 -0.3789 -0.4150  0.4793
 4641UDC     C651046  10.153  10.785  11.268  0.3012 -0.3075  0.0604
 4641UDC     C751047  10.146  10.902  11.169 -0.1804  0.0301 -0.5750
 4641UDC     C851048  10.239  11.021  11.185  0.4964 -0.9283 -0.7651
 4641UDC     C951049  10.314  11.056  11.065 -0.7431 -1.0698 -0.3674
 4641UDC    C1051050  10.421  10.954  11.023  1.1735 -0.4457  0.0196
 4641UDC    C1151051  10.521  10.997  10.920  0.3439  0.1779  0.6976
 4642UDC     C151052  13.553  11.339  15.332 -0.5819 -0.3879 -0.5873
 4642UDC     C251053  13.457  11.234  15.273 -0.7143 -0.9242  0.9674
 4642UDC     C351054  13.461  11.228  15.121 -0.6808 -0.2947 -0.1363
 4642UDC     C451055  13.404  11.347  15.034 -0.8682  0.4782 -0.0174
 4642UDC     C551056  13.439  11.329  14.887 -0.0016  0.6891 -0.7309
 4642UDC     C651057  13.585  11.338  14.865 -0.2643 -0.1313  0.6057
 4642UDC     C751058  13.651  11.467  14.886 -0.0690 -1.1218 -0.1743
 4642UDC     C851059  13.754  11.489  14.767 -0.6808 -0.5229 -0.2671
 4642UDC     C951060  13.850  11.599  14.806 -1.3621 -0.2743 -0.1421
 4642UDC    C1051061  13.989  11.608  14.742  0.4459 -0.0003 -0.3042
 4642UDC    C1151062  14.073  11.721  14.798  0.5173 -0.1661 -0.0668
 4643UDC     C151063  15.610   5.529   9.663  0.7538  0.6919  0.1121
 4643UDC     C251064  15.600   5.664   9.736  0.1684  0.4490 -0.2869
 4643UDC     C351065  15.735   5.731   9.772 -0.1923 -1.3771  0.0238
 4643UDC     C451066  15.724   5.864   9.846  0.9185 -0.4738 -0.1709
 4643UDC     C551067  15.853   5.907   9.912  1.2859  0.5369 -0.3937
 4643UDC     C651068  15.840   6.045   9.977 -0.1900  0.4744  0.0923
 4643UDC     C751069  15.946   6.108  10.062 -0.1219 -0.1135 -0.0828
 4643UDC     C851070  15.908   6.244  10.121 -0.0151 -0.4997 -0.2120
 4643UDC     C951071  15.903   6.372  10.035 -0.0658 -0.3610 -0.7548
 4643UDC    C1051072  15.794   6.367   9.938 -0.6117  1.2193  0.9828
 4643UDC    C1151073  15.770   6.485   9.843 -0.2543 -0.7624  1.0657
 4644UDC     C151074  15.021   0.840   1.883 -0.8350  0.3094  0.1479
 4644UDC     C251075  15.066   0.935   1.995  0.7744 -0.1164  0.7505
 4644UDC     C351076  15.222   0.941   2.001 -0.2916 -0.2136  0.2724
 4644UDC     C451077  15.285   1.043   1.911 -0.1686  0.3353  0.5666
 4644UDC     C551078  15.437   1.008   1.887 -0.1166  0.5257  0.2864
 4644UDC     C651079  15.453   0.934   1.751  0.1560 -0.0014 -0.8108
 4644UDC     C751080  15.577   0.856   1.725  0.1619 -0.0694  0.1902
 4644UDC     C851081  15.699   0.946   1.683  0.1065  0.3131  0.2962
 4644UDC     C951082  15.830   0.871   1.658 -0.4327 -0.3510  1.0351
 4644UDC    C1051083  15.953   0.963   1.682  0.0554 -0.3962 -1.3365
 4644UDC    C1151084  15.973   0.984   1.839 -0.1881 -0.6248  0.7629
 4645UDC     C151085  16.408   3.124  13.153 -0.4231 -0.1606 -0.2180
 4645UDC     C251086  16.289   3.182  13.230  0.3854 -0.2160  0.8798
 4645UDC     C351087  16.243   3.069  13.325  0.7870 -0.7368 -0.1625
 4645UDC     C451088  16.126   3.118  13.409  0.0054 -0.0021 -0.2974
 4645UDC     C551089  16.163   3.147  13.560  0.1832 -0.1445 -0.1399
 4645UDC     C651090  16.132   3.020  13.640 -0.3532  0.1276 -0.0827
 4645UDC     C751091  15.990   2.973  13.670 -0.4746  0.3732 -0.5696
 4645UDC     C851092  15.919   3.030  13.789 -0.1555 -1.2420 -1.0170
 4645UDC     C951093  15.772   3.054  13.760  0.1714  0.0986  0.2188
 4645UDC    C1051094  15.670   3.098  13.867 -0.2779 -0.6208 -0.1821
 4645UDC    C1151095  15.694   3.250  13.891  0.6700 -0.6953  0.4560
 4646UDC     C151096   5.463   9.790   0.490  0.9264 -1.1244  0.9968
 4646UDC     C251097   5.516   9.893   0.599 -0.0576  0.8338 -0.2590
 4646UDC     C351098   5.508  10.043   0.587 -0.3567  0.2453 -0.1819
 4646UDC     C451099   5.577  10.106   0.722  0.2341  0.4658 -0.8990
 4646UDC     C551100   5.555  10.252   0.757 -0.2843  0.2673 -0.2907
 4646UDC     C651101   5.625  10.298   0.886  0.3911 -0.0798 -0.2569
 4646UDC     C751102   5.606  10.225   1.019 -0.3551 -0.4580 -0.7760
 4646UDC     C851103   5.639  10.310   1.146  0.3429  1.0818  0.6282
 4646UDC     C951104   5.629  10.250   1.281 -0.6018  1.6993 -0.7267
 4646UDC    C1051105   5.546  10.318   1.392 -0.2537 -0.2362 -0.3447
 4646UDC    C1151106   5.578  10.462   1.436 -1.0651  0.7770  1.0685
 4647UDC     C151107   1.042   3.749   2.794 -0.2213 -0.6558 -0.5903
 4647UDC     C251108   0.923   3.748   2.886 -0.1769  0.0204 -0.0678
 4647UDC     C351109   0.941   3.636   2.990 -0.0983 -0.2481 -0.0759
 4647UDC     C451110   0.860   3.655   3.120  0.9100 -0.3719  0.2339
 4647UDC     C551111   0.702   3.664   3.126  0.3773 -0.1894  0.3792
 4647UDC     C651112   0.655   3.697   3.267  0.0849  0.2918 -0.7479
 4647UDC     C751113   0.691   3.597   3.380  0.6840 -0.3658 -0.9481
 4647UDC     C851114   0.661   3.464   3.320  1.4349  0.0846  1.0834
 4647UDC     C951115   0.681   3.335   3.403 -0.1672 -0.6862 -0.8577
 4647UDC    C1051116   0.642   3.197   3.347  0.5311  0.1770 -0.1071
 4647UDC    C1151117   0.486   3.170   3.346 -1.4860  0.2347 -0.7879
 4648UDC     C151118   5.934   2.828  17.398  0.1281 -0.4764 -0.3077
 4648UDC     C251119   5.896   2.687  17.443  0.3188 -1.1475 -0.0449
 4648UDC     C351120   5.817   2.592  17.350 -0.4757  0.1818 -0.5316
 4648UDC     C451121   5.731   2.478  17.417 -0.0304  0.0549 -0.1993
 4648UDC     C551122   5.795   2.341  17.451  0.0262  0.1093  1.1618
 4648UDC     C651123   5.796   2.273  17.588  0.6576  0.1977 -0.4097
 4648UDC     C751124   5.835   2.127  17.566 -0.8213 -0.7517  0.0477
 4648UDC     C851125   5.883   2.046  17.684 -0.0545  0.0611  0.1088
 4648UDC     C951126   5.841   1.889  17.676 -0.5498  0.0557  0.7321
 4648UDC    C1051127   5.889   1.799  17.557 -0.2945 -0.1605  0.0551
 4648UDC    C1151128   5.808   1.676  17.531 -0.1398  0.5701 -0.1254
 4649UDC     C151129   0.344  18.835  12.128 -0.4804 -0.5962  0.7486
 4649UDC     C251130   0.447  18.726  12.164 -0.2149 -0.1881 -0.4903
 4649UDC     C351131   0.566  18.777  12.243 -0.4152  0.0616 -0.9655
 4649UDC     C451132   0.627  18.651  12.314 -0.5746  0.5117  0.7256
 4649UDC     C551133   0.776  18.655  12.362 -0.0973 -1.6504 -1.1579
 4649UDC     C651134   0.830  18.517  12.380  0.0034  0.3114  0.0356
 4649UDC     C751135   0.798  18.445  12.505  1.2747  0.1132 -0.3571
 4649UDC     C851136   0.905  18.340  12.547 -0.0301  0.1698  0.1490
 4649UDC     C951137   0.855  18.247  12.661 -0.1431  1.0452 -0.9797
 4649UDC    C1051138   0.965  18.152  12.696 -0.1008 -0.1490  0.4038
 4649UDC    C1151139   0.914  18.053  12.807 -0.8292  0.3225  0.5653
 4650UDC     C151140  18.592   8.645   6.925  0.7351 -0.5400  0.1322
 4650UDC     C251141  18.529   8.786   6.937  0.4014 -0.2832  0.7523
 4650UDC     C351142  18.574   8.880   7.050 -1.1898  0.3588  0.2946
 4650UDC     C451143  18.709   8.950   7.024  0.7546  0.2717  0.5829
 4650UDC     C551144  18.849   8.895   6.995  0.8717  1.5185 -0.9929
 4650UDC     C651145  18.953   8.981   7.050  0.5029 -0.0333 -1.2224
 4650UDC     C751146  18.940   9.130   7.003 -1.4309  0.0652 -1.4285
 4650UDC     C851147  18.961   9.244   7.114  0.8328  0.3655  0.7389
 4650UDC     C951148  19.009   9.379   7.050 -0.4679  0.1249  0.1561
 4650UDC    C1051149  19.034   9.480   7.168 -0.2921 -0.3950 -0.2176
 4650UDC    C1151150  18.926   9.502   7.270 -0.1320  0.0025 -0.0449
 4651UDC     C151151   1.353   4.854   6.282  0.4307  0.9584  0.6415
 4651UDC     C251152   1.425   4.802   6.159 -0.3545  1.0950 -0.0893
 4651UDC     C351153   1.394   4.653   6.114 -0.5601  1.1936 -0.3635
 4651UDC     C451154   1.497   4.602   6.012  0.4341  0.4216  0.1087
 4651UDC     C551155   1.454   4.629   5.871 -0.6457  0.3764 -0.8418
 4651UDC     C651156   1.592   4.679   5.818  0.2788 -0.7093 -0.1888
 4651UDC     C751157   1.582   4.744   5.678 -0.7750  0.4627 -0.6333
 4651UDC     C851158   1.541   4.653   5.555  0.0510  0.9960 -0.2357
 4651UDC     C951159   1.637   4.527   5.533  0.0876 -1.1495 -0.4155
 4651UDC    C1051160   1.566   4.428   5.452 -0.1063  0.1331  0.1338
 4651UDC    C1151161   1.661   4.305   5.426 -0.7339  0.4113  0.5693
 4652UDC     C151162  17.681   5.234   1.991 -0.4265 -0.6783  0.9840
 4652UDC     C251163  17.578   5.170   1.900 -0.8435 -0.2633 -0.0539
 4652UDC     C351164  17.455   5.080   1.954 -1.0127  0.0466 -0.1541
 4652UDC     C451165  17.480   4.961   2.044 -0.9774  0.3290 -0.2388
 4652UDC     C551166  17.347   4.919   2.112 -0.5893  0.3246  0.4554
 4652UDC     C651167  17.341   4.826   2.240 -0.8465 -0.8006 -0.4189
 4652UDC     C751168  17.234   4.711   2.230 -0.1603 -0.9937 -0.0671
 4652UDC     C851169  17.170   4.683   2.362  0.2045 -0.6790  0.0475
 4652UDC     C951170  17.263   4.596   2.455 -0.6276 -0.6659 -0.4183
 4652UDC    C1051171  17.327   4.487   2.373 -1.2286  0.3891 -0.1417
 4652UDC    C1151172  17.443   4.421   2.444  1.1834  0.4894  0.7098
 4653UDC     C151173   1.303   3.042  10.370 -0.4648 -0.4608  0.3714
 4653UDC     C251174   1.458   3.017  10.395  0.3037  0.5181  0.4322
 4653UDC     C351175   1.500   2.900  10.483  0.5775  0.7441 -0.1629
 4653UDC     C451176   1.651   2.912  10.506  0.0959 -1.1984  0.6890
 4653UDC     C551177   1.727   2.866  10.380 -0.4892 -0.7474 -0.2939
 4653UDC     C651178   1.879   2.878  10.371 -0.4457  0.5005  0.1860
 4653UDC     C751179   1.947   3.014  10.325 -0.6438  0.1071 -0.5275
 4653UDC     C851180   1.918   3.035  10.179 -0.4087 -0.3755  0.1198
 4653UDC     C951181   1.956   3.177  10.123  1.8053  0.0175 -0.3021
 4653UDC    C1051182   1.899   3.294  10.205  0.9593  0.9904 -0.8610
 4653UDC    C1151183   1.740   3.303  10.179 -0.2247 -0.1522  0.1333
 4654UDC     C151184  14.446   0.780   2.659 -0.5203  0.6955  1.0374
 4654UDC     C251185  14.365   0.687   2.746 -0.9593  0.2971 -1.1866
 4654UDC     C351186  14.370   0.749   2.889  0.6679 -0.0705 -1.4639
 4654UDC     C451187  14.383   0.639   2.995  0.0575  1.0696  1.1243
 4654UDC     C551188  14.258   0.555   3.006  0.2664  0.2942  0.7526
 4654UDC     C651189  14.252   0.437   3.116 -0.4574 -0.4009  0.1601
 4654UDC     C751190  14.375   0.350   3.132 -0.3585 -0.2367 -0.5113
 4654UDC     C851191  14.481   0.424   3.223  0.0979 -0.4218 -0.1066
 4654UDC     C951192  14.455   0.402   3.374  0.6388  0.0301  0.4982
 4654UDC    C1051193  14.574   0.457   3.450 -0.5037  0.3050  0.6385
 4654UDC    C1151194  14.565   0.479   3.603 -0.3274  0.1436  0.6989
 4655UDC     C151195   2.270  16.940   5.542 -0.4347  1.2176 -0.2749
 4655UDC     C251196   2.214  16.831   5.444  0.6285 -0.2658 -0.4404
 4655UDC     C351197   2.154  16.712   5.524 -0.3535  1.1466  0.1061
 4655UDC     C451198   2.258  16.650   5.621 -0.7472 -0.2702 -0.1172
 4655UDC     C551199   2.372  16.565   5.554  1.2136  0.1518  0.8364
 4655UDC     C651200   2.481  16.517   5.648  0.0709  1.2736  0.3675
 4655UDC     C751201   2.435  16.437   5.768  0.1135 -0.8281 -0.2655
 4655UDC     C851202   2.533  16.400   5.880  0.1243  0.9103  1.0523
 4655UDC     C951203   2.562  16.253   5.908  1.0473 -0.3683 -0.5071
 4655UDC    C1051204   2.610  16.236   6.051 -0.1486 -0.8001 -0.6067
 4655UDC    C1151205   2.593  16.095   6.107  0.5077  0.3277 -0.0885
 4656UDC     C151206   0.719  19.687  10.411  0.1865 -0.7673  0.1491
 4656UDC     C251207   0.593  19.617  10.366 -0.0468 -0.5523 -0.7103
 4656UDC     C351208   0.484  19.696  10.316  1.0124 -0.9234 -0.0622
 4656UDC     C451209   0.343  19.632  10.309  0.1545  1.1336 -0.1770
 4656UDC     C551210   0.329  19.498  10.236 -0.0198  0.2497 -0.5253
 4656UDC     C651211   0.191  19.432  10.261 -0.1247  0.1658  0.2409
 4656UDC     C751212   0.167  19.292  10.206  0.9770 -1.6082 -0.6426
 4656UDC     C851213   0.024  19.239  10.239 -0.8503 -0.1054  0.0152
 4656UDC     C951214   0.010  19.224  10.390 -0.3637  0.0531 -1.0448
 4656UDC    C1051215  -0.125  19.161  10.424  0.5105 -0.2198  0.1483
 4656UDC    C1151216  -0.190  19.146  10.564 -0.5612  0.0907 -0.0827
 4657UDC     C151217   1.981   2.605  12.262  0.5105  0.0535 -0.0906
 4657UDC     C251218   1.896   2.486  12.306 -0.7850  0.0264 -0.2337
 4657UDC     C351219   1.871   2.461  12.458 -1.1953 -0.8725  1.0141
 4657UDC     C451220   1.851   2.580  12.553 -1.0622 -0.2400 -0.4758
 4657UDC     C551221   1.813   2.546  12.700 -0.0100  0.2603  0.0648
 4657UDC     C651222   1.745   2.658  12.786 -0.2680 -0.3373  1.0810
 4657UDC     C751223   1.715   2.602  12.930  0.4839 -0.1467  0.7426
 4657UDC     C851224   1.642   2.702  13.021 -0.2562 -0.3362  1.0308
 4657UDC     C951225   1.643   2.614  13.137 -0.9861  0.6126  0.3244
 4657UDC    C1051226   1.559   2.655  13.262 -0.0668 -0.1345  0.0420
 4657UDC    C1151227   1.643   2.698  13.388  0.1836  0.6628  0.4607
 4658UDC     C151228   4.816  11.918  12.971  0.4255  0.4831  0.6896
 4658UDC     C251229   4.712  11.845  12.879 -0.3890 -0.3448  0.3774
 4658UDC     C351230   4.797  11.804  12.752  0.7227  0.0107 -0.3195
 4658UDC     C451231   4.724  11.693  12.671  0.1771  0.4835 -0.3779
 4658UDC     C551232   4.595  11.720  12.592 -1.2502 -0.4961 -0.2992
 4658UDC     C651233   4.605  11.829  12.493 -0.3649 -1.5678 -0.3350
 4658UDC     C751234   4.466  11.844  12.420  0.1486  0.0989  0.2399
 4658UDC     C851235   4.418  11.732  12.327 -0.1615  0.1900 -0.7738
 4658UDC     C951236   4.478  11.707  12.187 -0.7287 -0.1309  0.8563
 4658UDC    C1051237   4.538  11.567  12.167  0.2313 -0.1312  0.2932
 4658UDC    C1151238   4.439  11.468  12.233 -0.9325 -0.3435  0.2028
 4659UDC     C151239  14.916   9.866   7.917  0.3740  0.0758 -0.4003
 4659UDC     C251240  14.796   9.768   7.915  0.5561 -0.2997  0.0734
 4659UDC     C351241  14.746   9.731   7.772 -0.3031  1.0383  0.7962
 4659UDC     C451242  14.758   9.840   7.669  0.2048 -0.3625 -0.0842
 4659UDC     C551243  14.832   9.788   7.548 -0.2527  0.7624 -0.1157
 4659UDC     C651244  14.759   9.693   7.448  0.4674  0.4580  0.9209
 4659UDC     C751245  14.840   9.664   7.318 -0.5612  0.0499 -0.1218
 4659UDC     C851246  14.886   9.793   7.246 -0.0361  0.5542 -0.2010
 4659UDC     C951247  14.761   9.876   7.190 -0.1156  0.0747 -0.3259
 4659UDC    C1051248  14.766  10.005   7.111 -0.0049  1.4194 -0.7220
 4659UDC    C1151249  14.674  10.121   7.141 -0.5398  0.1847 -0.2503
 4660UDC     C151250   2.054   1.910  13.945  0.1255 -0.0563  0.2778
 4660UDC     C251251   2.143   2.001  13.863 -0.3876 -0.2051  1.1827
 4660UDC     C351252   2.094   2.074  13.740  0.4049  0.4146  0.1211
 4660UDC     C451253   2.045   1.992  13.631  0.0044  0.6628  1.1945
 4660UDC     C551254   2.145   1.900  13.569 -0.0032  0.2959  1.2247
 4660UDC     C651255   2.257   1.967  13.489 -0.5522  0.6442 -0.2720
 4660UDC     C751256   2.211   1.965  13.342  0.0034 -1.0251 -1.3851
 4660UDC     C851257   2.290   2.057  13.246  0.1029  0.5211  0.5004
 4660UDC     C951258   2.248   2.203  13.259 -0.7541  0.3285  0.1796
 4660UDC    C1051259   2.178   2.279  13.144 -0.0267  1.1763 -0.9525
 4660UDC    C1151260   2.256   2.285  13.017 -0.0035  0.5533 -0.5627
 4661UDC     C151261  15.786  18.856   8.450 -0.0141 -0.5088  0.2968
 4661UDC     C251262  15.731  18.814   8.309 -0.1095  0.2033  0.2366
 4661UDC     C351263  15.705  18.928   8.203  0.2054  1.4420 -0.1082
 4661UDC     C451264  15.832  18.998   8.159  0.1840 -0.2270 -0.4664
 4661UDC     C551265  15.803  19.088   8.038 -0.4661 -0.8354 -0.5710
 4661UDC     C651266  15.736  19.015   7.929  0.3898  0.5000  0.8617
 4661UDC     C751267  15.687  19.102   7.814 -0.1712  0.1312 -0.1453
 4661UDC     C851268  15.615  19.013   7.714  0.4984  0.3869 -0.2599
 4661UDC     C951269  15.704  18.916   7.639 -0.4521  0.2239  1.7577
 4661UDC    C1051270  15.748  19.004   7.521 -0.1241  0.7313 -0.3793
 4661UDC    C1151271  15.837  18.926   7.422  0.3875 -0.2453  0.5116
 4662UDC     C151272   2.248  10.277  10.174 -0.0719  0.0349  0.7206
 4662UDC     C251273   2.260  10.354  10.314 -0.4826 -0.2410 -0.2198
 4662UDC     C351274   2.314  10.268  10.431 -0.1464  0.0916  0.0247
 4662UDC     C451275   2.357  10.361  10.543 -0.5539  0.2482 -0.8853
 4662UDC     C551276   2.513  10.365  10.548  0.9722  0.2820  0.6367
 4662UDC     C651277   2.569  10.240  10.616 -0.1002  0.0851 -0.2807
 4662UDC     C751278   2.722  10.266  10.648  0.6501  0.8690  0.6258
 4662UDC     C851279   2.786  10.135  10.688  0.3837 -0.4496 -0.8119
 4662UDC     C951280   2.937  10.141  10.725 -0.5412  0.2524 -1.3769
 4662UDC    C1051281   2.966  10.216  10.858 -0.3110 -0.3340  0.6727
 4662UDC    C1151282   3.116  10.253  10.889  0.3415  1.6609 -0.3297
 4663UDC     C151283   8.106  14.727  10.705  0.0269 -0.7280  0.4285
 4663UDC     C251284   7.970  14.708  10.644  1.3797  1.0195 -0.2119
 4663UDC     C351285   7.936  14.790  10.523 -0.1471  1.0002 -0.1911
 4663UDC     C451286   7.796  14.770  10.457  0.4850 -0.0607 -1.3836
 4663UDC     C551287   7.691  14.826  10.558 -0.2222  0.7346  0.0386
 4663UDC     C651288   7.671  14.979  10.598 -0.6360 -0.1242 -0.0597
 4663UDC     C751289   7.554  15.011  10.703  0.6676  0.4662  0.2534
 4663UDC     C851290   7.534  15.163  10.738  0.4344 -0.5802  0.1358
 4663UDC     C951291   7.411  15.196  10.819  0.3910  0.2547  0.1801
 4663UDC    C1051292   7.416  15.307  10.918  0.0191  0.9543 -1.0629
 4663UDC    C1151293   7.375  15.453  10.868 -1.4205 -0.4286  0.2901
 4664UDC     C151294   4.312  19.958  15.557 -1.2131  0.0067 -0.5332
 4664UDC     C251295   4.247  19.820  15.588 -0.9292 -0.0835  1.0132
 4664UDC     C351296   4.113  19.774  15.539  0.3548 -0.2666  0.5369
 4664UDC     C451297   4.088  19.625  15.570  0.2590  0.2268 -0.4163
 4664UDC     C551298   3.942  19.588  15.596 -0.1223 -0.2534 -1.2991
 4664UDC     C651299   3.872  19.650  15.724  0.0841 -0.0939  0.4401
 4664UDC     C751300   3.942  19.598  15.848 -0.2298 -0.0265 -0.8972
 4664UDC     C851301   4.048  19.676  15.937 -0.4094  0.2957 -0.0364
 4664UDC     C951302   4.048  19.829  15.918 -0.2769  0.1867  0.3243
 4664UDC    C1051303   4.135  19.898  16.023 -0.1226 -1.3733  0.4839
 4664UDC    C1151304   4.136  19.838  16.172 -0.1980 -0.1751 -0.3976
 4665UDC     C151305   9.599  16.177   4.680  0.3992  0.4072 -0.2142
 4665UDC     C251306   9.721  16.254   4.725 -0.1896 -0.6638  0.0263
 4665UDC     C351307   9.807  16.177   4.821  0.2460  1.1705  0.0363
 4665UDC     C451308   9.874  16.263   4.931 -0.4485 -0.6529 -0.0824
 4665UDC     C551309   9.968  16.356   4.857  0.9046  0.0298  0.0433
 4665UDC     C651310  10.076  16.299   4.760 -0.3565 -0.0500 -0.0317
 4665UDC     C751311  10.143  16.360   4.630  0.5765 -0.8388  0.4546
 4665UDC     C851312  10.224  16.272   4.532 -0.0421  0.0397  0.5867
 4665UDC     C951313  10.271  16.337   4.399  1.0553  0.6583 -0.5493
 4665UDC    C1051314  10.358  16.457   4.414 -0.9467 -0.4103 -1.1235
 4665UDC    C1151315  10.456  16.484   4.302  0.3743  0.2526  1.2928
 4666UDC     C151316   6.980  12.945  12.378 -0.3462 -0.3422  0.3050
 4666UDC     C251317   6.958  13.085  12.435  0.4213  0.5305  0.7278
 4666UDC     C351318   7.062  13.134  12.541  0.3535  1.4209  0.6762
 4666UDC     C451319   7.208  13.148  12.497 -0.7685  0.4716  1.2687
 4666UDC     C551320   7.296  13.182  12.614 -0.5800  0.2988 -0.5681
 4666UDC     C651321   7.286  13.095  12.743 -0.9699  0.0111 -0.0393
 4666UDC     C751322   7.370  12.971  12.734 -0.1366  0.2428  0.1843
 4666UDC     C851323   7.373  12.883  12.855  0.0063 -0.3234 -0.0075
 4666UDC     C951324   7.315  12.734  12.835  0.8535 -0.0872 -0.3905
 4666UDC    C1051325   7.358  12.673  12.697  0.3440 -1.4108 -0.0120
 4666UDC    C1151326   7.252  12.567  12.658 -1.5623 -0.0661  0.1137
 4667UDC     C151327  18.342  14.490  17.662 -0.8749 -0.2632 -0.3412
 4667UDC     C251328  18.454  14.562  17.582 -1.1985 -0.8461  0.0499
 4667UDC     C351329  18.426  14.689  17.503  0.0364 -0.2890  0.4537
 4667UDC     C451330  18.377  14.799  17.597 -0.6420 -0.2448 -0.4149
 4667UDC     C551331  18.306  14.924  17.540  0.0929  0.0284 -0.3288
 4667UDC     C651332  18.393  14.985  17.430  1.0168 -0.9764 -0.0566
 4667UDC     C751333  18.329  15.077  17.326 -1.0545  0.3320  0.7585
 4667UDC     C851334  18.217  15.012  17.244 -0.0907  0.6533 -1.0799
 4667UDC     C951335  18.284  14.927  17.141  0.2704  0.6485 -0.6978
 4667UDC    C1051336  18.182  14.836  17.070  1.3752 -0.6441 -0.6690
 4667UDC    C1151337  18.243  14.750  16.956 -0.8036 -0.4890  1.5228
 4668UDC     C151338   5.014   9.264   9.381 -0.3173  0.3814  0.8608
 4668UDC     C251339   5.057   9.303   9.239 -0.4526  0.1888 -0.0468
 4668UDC     C351340   5.102   9.442   9.226  0.9689 -0.9339  0.3749
 4668UDC     C451341   5.189   9.497   9.336 -1.1878  1.3855 -0.0719
 4668UDC     C551342   5.317   9.572   9.288 -0.7817  1.2427  0.1539
 4668UDC     C651343   5.423   9.622   9.391 -0.1093 -0.0991  0.5620
 4668UDC     C751344   5.557   9.649   9.335 -1.1579 -0.1349 -0.1897
 4668UDC     C851345   5.628   9.763   9.406 -0.2252 -0.2851  0.4830
 4668UDC     C951346   5.751   9.828   9.335  0.0920  0.5926  0.5889
 4668UDC    C1051347   5.783   9.963   9.402 -0.5926  0.7749 -0.7647
 4668UDC    C1151348   5.755   9.950   9.554  0.0666 -0.7204 -0.2935
 4669UDC     C151349   0.029   9.522   5.513  0.9002 -0.4836 -0.4988
 4669UDC     C251350  -0.044   9.646   5.452 -1.1449  0.1426 -0.9958
 4669UDC     C351351  -0.163   9.581   5.371  0.2865  1.1862  0.3526
 4669UDC     C451352  -0.130   9.546   5.222 -1.1485  0.2925  0.2225
 4669UDC     C551353  -0.087   9.404   5.177  0.4039  0.2934 -0.6348
 4669UDC     C651354  -0.160   9.300   5.272  0.6990 -1.4428 -0.1833
 4669UDC     C751355  -0.314   9.292   5.269 -0.7525  1.2426 -0.2850
 4669UDC     C851356  -0.395   9.277   5.140 -0.3980 -0.3483  0.4482
 4669UDC     C951357  -0.381   9.129   5.088 -0.3191 -0.9451  0.2991
 4669UDC    C1051358  -0.356   9.117   4.936  0.5863 -0.0175  0.2671
 4669UDC    C1151359  -0.310   8.990   4.868 -0.0042 -0.7124 -0.4191
 4670UDC     C151360   7.566  14.350   9.305  0.3672 -0.5958  0.2438
 4670UDC     C251361   7.590  14.199   9.327 -0.0628  0.6031  0.8149
 4670UDC     C351362   7.578  14.149   9.477 -0.9951 -0.2518  0.3363
 4670UDC     C451363   7.635  14.004   9.492  0.1135 -0.4575  0.5505
 4670UDC     C551364   7.784  14.007   9.477 -0.5195 -0.6351 -0.2909
 4670UDC     C651365   7.867  13.879   9.504  0.5064  0.4777 -0.2655
 4670UDC     C751366   8.018  13.893   9.477  0.3381 -0.1023  0.6501
 4670UDC     C851367   8.105  13.942   9.592  0.6477 -0.3248  0.5751
 4670UDC     C951368   8.252  13.980   9.572  0.1323  0.8827  0.2485
 4670UDC    C1051369   8.333  14.023   9.691 -0.2028 -0.7314  0.4266
 4670UDC    C1151370   8.292  14.149   9.766 -0.1265 -0.4900 -0.0487
 4671UDC     C151371  17.511   7.159  18.867  0.4513 -0.9282 -0.7531
 4671UDC     C251372  17.534   7.184  19.017 -0.8545 -1.5555  0.7706
 4671UDC     C351373  17.542   7.074  19.123  0.3387 -0.1671 -0.3420
 4671UDC     C451374  17.683   7.034  19.174  0.5969 -1.2311  0.0342
 4671UDC     C551375  17.710   6.920  19.276 -0.5613  0.0986  0.7824
 4671UDC     C651376  17.864   6.907  19.310 -0.1175  0.5074 -0.1163
 4671UDC     C751377  17.927   6.849  19.442  0.3675 -0.0059  0.9963
 4671UDC     C851378  17.857   6.719  19.489  0.8001 -0.6958 -0.3274
 4671UDC     C951379  17.936   6.585  19.461  0.5081 -0.5932  0.6931
 4671UDC    C1051380  17.942   6.500  19.585 -0.5925  0.0005  0.3550
 4671UDC    C1151381  18.017   6.374  19.566 -0.8185  1.0910  0.2471
 4672UDC     C151382   2.525  14.637  18.010 -0.2964 -0.2490 -0.1049
 4672UDC     C251383   2.587  14.737  17.915 -0.3356 -0.0659  0.1488
 4672UDC     C351384   2.666  14.674  17.796 -0.0973 -0.4395  0.3821
 4672UDC     C451385   2.607  14.556  17.729 -0.0282 -0.1743  0.0578
 4672UDC     C551386   2.717  14.479  17.663  0.6470  0.2916  0.3639
 4672UDC     C651387   2.690  14.375  17.554 -0.0642 -1.1153  0.5237
 4672UDC     C751388   2.795  14.377  17.445  0.2856  0.2193  0.3871
 4672UDC     C851389   2.949  14.367  17.479  0.5198  0.4742 -0.5433
 4672UDC     C951390   3.048  14.335  17.366 -0.9880  0.1686  0.3937
 4672UDC    C1051391   3.201  14.354  17.410  0.4277  0.6238  0.1823
 4672UDC    C1151392   3.328  14.331  17.317  0.2165  0.5701 -0.4435
 4673UDC     C151393  13.168   6.072   2.599 -0.6273  0.6973  0.2862
 4673UDC     C251394  13.169   5.973   2.719 -0.1651  0.2316 -0.8273
 4673UDC     C351395  13.284   5.974   2.814 -1.0528 -0.4572  0.6107
 4673UDC     C451396  13.416   6.010   2.746  0.2365 -0.5306 -0.5188
 4673UDC     C551397  13.529   5.992   2.845  0.1155 -0.4587  0.2877
 4673UDC     C651398  13.653   5.918   2.798 -0.5687  0.2121  0.4516
 4673UDC     C751399  13.663   5.764   2.804 -0.7594 -0.1637  0.2965
 4673UDC     C851400  13.656   5.703   2.946  0.3152 -0.6314  0.8309
 4673UDC     C951401  13.634   5.562   3.000 -0.6066  0.8549  0.5012
 4673UDC    C1051402  13.602   5.559   3.145  1.2655  0.1292  0.9622
 4673UDC    C1151403  13.504   5.454   3.204  0.1509 -1.6062 -0.0356
 4674UDC     C151404   1.001  18.512   2.176 -1.3003  0.1289 -0.5606
 4674UDC     C251405   1.045  18.538   2.031  0.3841 -0.0243 -0.1186
 4674UDC     C351406   1.003  18.430   1.930  0.0434 -0.1498  0.9093
 4674UDC     C451407   1.014  18.293   1.999  0.8741  0.4304 -0.8675
 4674UDC     C551408   0.970  18.182   1.894 -0.1664 -0.4077 -0.5509
 4674UDC     C651409   0.947  18.039   1.940 -0.6260  0.1410  0.5034
 4674UDC     C751410   0.882  17.935   1.844 -1.2897  0.2281 -0.9647
 4674UDC     C851411   0.929  17.953   1.693 -0.7049  0.7296 -0.8943
 4674UDC     C951412   1.078  17.910   1.679  0.7295  0.3057  0.2140
 4674UDC    C1051413   1.123  17.925   1.529  0.1040 -0.0595 -0.5790
 4674UDC    C1151414   1.153  18.056   1.451 -0.0661 -0.8704  0.2349
 4675UDC     C151415   1.416  19.330  17.393 -0.3707 -0.1053 -0.2649
 4675UDC     C251416   1.411  19.171  17.408 -0.0897 -0.1634 -1.0180
 4675UDC     C351417   1.529  19.105  17.490 -0.4086 -0.6151  0.4286
 4675UDC     C451418   1.667  19.159  17.469 -0.8614  0.2823  0.2829
 4675UDC     C551419   1.766  19.062  17.540 -0.2616  0.1299  0.8273
 4675UDC     C651420   1.748  18.914  17.510 -0.5932 -0.6597  1.0795
 4675UDC     C751421   1.881  18.841  17.537 -0.7689  0.5332  0.1297
 4675UDC     C851422   1.944  18.877  17.669 -1.1471  0.7049 -0.1132
 4675UDC     C951423   2.076  18.793  17.698  0.3920  0.4135  0.9251
 4675UDC    C1051424   2.153  18.829  17.827  0.2740  1.1816  0.8415
 4675UDC    C1151425   2.263  18.732  17.845  0.2954  0.2478  0.1289
 4676UDC     C151426  18.335  13.411  19.317 -0.0956 -0.7206 -0.0815
 4676UDC     C251427  18.243  13.287  19.323  0.7104  0.9391  0.8234
 4676UDC     C351428  18.332  13.167  19.360  1.4807  0.5532  0.0688
 4676UDC     C451429  18.230  13.062  19.419 -0.0980  0.0467 -0.5223
 4676UDC     C551430  18.285  12.931  19.467  0.0406 -1.2429 -0.5611
 4676UDC     C651431  18.375  12.870  19.366 -0.2136 -0.0531  0.2439
 4676UDC     C751432  18.379  12.719  19.376  0.4015 -0.0437  1.0832
 4676UDC     C851433  18.453  12.665  19.493 -0.2481 -0.0403  0.5253
 4676UDC     C951434  18.439  12.508  19.504 -0.5189 -0.8805 -0.3471
 4676UDC    C1051435  18.296  12.460  19.476  1.2586 -1.1379  0.2350
 4676UDC    C1151436  18.284  12.306  19.473 -0.0914  0.1045 -0.3203
 4677UDC     C151437  15.942  18.706  15.235  0.5594 -0.7966  0.2183
 4677UDC     C251438  16.057  18.771  15.318 -0.4030  0.1331  0.8015
 4677UDC     C351439  16.025  18.916  15.337 -0.6408 -0.2087 -0.3339
 4677UDC     C451440  16.117  19.013  15.271  1.0371 -0.4745 -0.9159
 4677UDC     C551441  16.065  19.150  15.251 -0.0752  0.1187  0.1539
 4677UDC     C651442  16.127  19.218  15.120  0.4173 -0.3198 -0.4029
 4677UDC     C751443  16.019  19.211  15.010 -0.7280 -0.7681  0.0958
 4677UDC     C851444  16.070  19.254  14.876  0.2897  0.1465  0.5756
 4677UDC     C951445  16.170  19.366  14.861 -0.6338  0.2153  0.1442
 4677UDC    C1051446  16.203  19.407  14.711  0.4882  0.0398 -0.0438
 4677UDC    C1151447  16.273  19.545  14.718 -0.4716  1.1600  0.1874
 4678UDC     C151448  10.069   9.834   9.458 -0.6278 -0.4255  0.8441
 4678UDC     C251449   9.970   9.731   9.410 -0.6924  0.2719 -1.0857
 4678UDC     C351450   9.840   9.797   9.369  0.1767 -0.1416  0.3254
 4678UDC     C451451   9.713   9.717   9.331 -0.2346 -0.2840 -0.4047
 4678UDC     C551452   9.601   9.717   9.442 -0.9997  0.2806 -1.1606
 4678UDC     C651453   9.458   9.705   9.398  1.0607  0.3756 -0.4299
 4678UDC     C751454   9.431   9.584   9.299  0.1421 -0.2944  0.1779
 4678UDC     C851455   9.287   9.600   9.241 -0.7125  0.2596 -0.1955
 4678UDC     C951456   9.235   9.454   9.228 -0.2385  0.0742  1.2308
 4678UDC    C1051457   9.260   9.370   9.346  0.7608  0.3047 -0.0010
 4678UDC    C1151458   9.193   9.230   9.352 -0.1944 -0.2766 -0.0513
 4679UDC     C151459  17.303   0.389  19.728 -0.4332  0.3245 -0.8120
 4679UDC     C251460  17.374   0.442  19.599 -1.2944  0.9563 -1.0085
 4679UDC     C351461  17.348   0.582  19.539 -0.4789 -0.3847 -0.2129
 4679UDC     C451462  17.467   0.650  19.481  0.4746 -0.0647 -0.3707
 4679UDC     C551463  17.568   0.571  19.396  1.1318  0.3054  0.7312
 4679UDC     C651464  17.643   0.654  19.290 -0.3240 -0.8140 -0.2754
 4679UDC     C751465  17.771   0.611  19.212  1.8188 -0.4155 -1.1574
 4679UDC     C851466  17.830   0.718  19.118  0.0986 -0.7616 -0.2871
 4679UDC     C951467  17.913   0.830  19.195 -0.1147  1.3638 -0.3673
 4679UDC    C1051468  18.045   0.766  19.250  0.9746  0.8645  0.7939
 4679UDC    C1151469  18.178   0.831  19.281 -0.4012 -0.0880 -0.0849
 4680UDC     C151470  10.310  10.014   0.350  0.0128  0.1360  0.5869
 4680UDC     C251471  10.220   9.893   0.318  0.3823  0.3591  0.4771
 4680UDC     C351472  10.085   9.924   0.385  0.2584  0.0171 -0.3568
 4680UDC     C451473  10.101   9.871   0.523 -0.1873  0.0361 -0.9420
 4680UDC     C551474   9.970   9.885   0.609  0.2111 -1.0229  0.1999
 4680UDC     C651475   9.862   9.804   0.534 -0.6162 -1.1817  0.7235
 4680UDC     C751476   9.717   9.847   0.523  0.1567 -1.5887  0.0668
 4680UDC     C851477   9.623   9.810   0.643  0.1440 -0.5594  0.1176
 4680UDC     C951478   9.475   9.860   0.635  1.0993  0.3108  0.3316
 4680UDC    C1051479   9.382   9.814   0.748  0.0610  0.4955  0.2770
 4680UDC    C1151480   9.229   9.844   0.728 -0.5757  0.6501  0.7985
 4681UDC     C151481  19.906  13.652  11.796 -0.7694 -0.5390 -0.6638
 4681UDC     C251482  20.043  13.664  11.720 -0.1270  1.2696 -0.7380
 4681UDC     C351483  20.031  13.614  11.581  0.2414  0.5732 -0.5747
 4681UDC     C451484  19.965  13.478  11.553  1.0351  0.3905 -0.3793
 4681UDC     C551485  19.945  13.418  11.415 -0.0356  0.0639  0.4035
 4681UDC     C651486  19.934  13.265  11.389 -0.9174  1.3086  0.9073
 4681UDC     C751487  20.080  13.215  11.348  0.7078  0.9080 -0.6214
 4681UDC     C851488  20.072  13.069  11.282  0.2755  0.0655 -0.2869
 4681UDC     C951489  20.198  13.006  11.319 -0.1728 -0.1152 -0.6188
 4681UDC    C1051490  20.327  13.079  11.275 -0.9620 -1.2301  0.1031
 4681UDC    C1151491  20.441  12.985  11.274 -0.3447  0.5097  0.2412
 4682UDC     C151492   2.164  17.454  15.762 -0.6336 -0.3285 -1.1745
 4682UDC     C251493   2.113  17.406  15.898  0.3254  0.8148  0.3920
 4682UDC     C351494   2.156  17.262  15.923  0.6207  0.5191 -1.0837
 4682UDC     C451495   2.170  17.228  16.076  0.5003 -0.0057  0.8159
 4682UDC     C551496   2.039  17.224  16.158  0.3356  0.2780  0.6174
 4682UDC     C651497   1.960  17.084  16.153 -0.5091 -0.0396 -0.2506
 4682UDC     C751498   1.906  17.069  16.016  0.6938  0.5825  0.7917
 4682UDC     C851499   1.891  16.913  15.993  0.5988  0.3273 -0.3141
 4682UDC     C951500   2.027  16.840  16.008  0.4230 -0.4999 -0.4185
 4682UDC    C1051501   2.102  16.798  15.882  0.7761  0.0755 -0.0652
 4682UDC    C1151502   2.010  16.707  15.794  0.3171  0.1031  0.8723
 4683UDC     C151503  19.447   8.674   8.169 -0.5632 -0.3015  0.5186
 4683UDC     C251504  19.569   8.669   8.066  0.2291 -0.5523  0.9432
 4683UDC     C351505  19.611   8.532   7.998  0.1075 -1.2230 -0.8280
 4683UDC     C451506  19.744   8.535   7.915  0.0714 -0.1124  0.8754
 4683UDC     C551507  19.790   8.404   7.863 -0.0017  0.3319 -0.2040
 4683UDC     C651508  19.889   8.414   7.749  0.1359 -1.2394 -0.3151
 4683UDC     C751509  19.824   8.458   7.618  0.2029 -1.8719 -1.1213
 4683UDC     C851510  19.935   8.500   7.523  0.1283 -0.6243  0.8984
 4683UDC     C951511  19.892   8.486   7.375 -0.1003 -0.1965 -0.6565
 4683UDC    C1051512  20.001   8.444   7.271  0.5711  0.3505  0.3542
 4683UDC    C1151513  20.089   8.558   7.208 -0.5947  0.0472 -0.5498
 4684UDC     C151514   9.717  10.680  15.998  0.5071  0.0707  0.2155
 4684UDC     C251515   9.659  10.671  15.855  0.1159 -0.2407  0.6034
 4684UDC     C351516   9.726  10.779  15.769  0.7710 -0.6832  0.1564
 4684UDC     C451517   9.707  10.917  15.843 -0.0499  0.2641  0.5181
 4684UDC     C551518   9.717  11.027  15.734  0.4337  0.1965 -0.4280
 4684UDC     C651519   9.697  11.171  15.798 -0.1742  0.3544 -0.7067
 4684UDC     C751520   9.649  11.249  15.676 -0.0477 -0.4521 -0.4855
 4684UDC     C851521   9.582  11.391  15.695  0.1795 -0.2379 -0.1004
 4684UDC     C951522   9.553  11.439  15.545  0.2395  0.1246 -1.3448
 4684UDC    C1051523   9.522  11.595  15.537 -0.7657 -0.5842 -1.0598
 4684UDC    C1151524   9.541  11.655  15.397 -0.5864  0.6882  0.9233
 4685UDC     C151525  11.205   6.048  13.077  0.2070  0.4268 -0.5366
 4685UDC     C251526  11.097   5.946  13.039  0.0199 -0.4458 -0.0446
 4685UDC     C351527  10.961   6.002  13.032  0.1400  0.8814  0.4603
 4685UDC     C451528  10.944   6.128  12.944  0.0252  1.3600  0.7968
 4685UDC     C551529  10.799   6.171  12.916  0.1534  0.5103  1.1543
 4685UDC     C651530  10.781   6.275  12.803  0.2060 -0.1416 -0.6603
 4685UDC     C751531  10.639   6.306  12.763 -0.1128  0.9578  0.3556
 4685UDC     C851532  10.558   6.193  12.691  0.2851 -0.0792 -0.2287
 4685UDC     C951533  10.612   6.165  12.550 -0.2343 -0.4327  0.9067
 4685UDC    C1051534  10.574   6.027  12.501  0.9596  0.8057  0.3646
 4685UDC    C1151535  10.429   5.978  12.493  0.6924  0.5008 -0.1897
 4686UDC     C151536  12.291  12.320   5.195 -0.2418 -0.2143  0.6232
 4686UDC     C251537  12.392  12.337   5.313  0.0590  0.7960 -0.6869
 4686UDC     C351538  12.322  12.315   5.450  0.3337 -0.0944  1.1331
 4686UDC     C451539  12.250  12.431   5.515 -1.3636 -0.0966  0.1691
 4686UDC     C551540  12.179  12.390   5.637  1.5223 -0.6222  1.4281
 4686UDC     C651541  12.041  12.329   5.630 -0.1852  0.6567  1.0742
 4686UDC     C751542  11.950  12.358   5.752  0.2701  0.3204  0.8605
 4686UDC     C851543  11.992  12.341   5.901 -0.4784 -0.2093  0.2557
 4686UDC     C951544  11.878  12.388   5.997  0.1500 -0.5603  0.1154
 4686UDC    C1051545  11.906  12.407   6.147 -0.1164 -0.4900 -0.2941
 4686UDC    C1151546  11.983  12.297   6.226  0.1878 -0.5719 -0.0724
 4687UDC     C151547  19.189  19.976  11.173  0.0308  0.1478  0.0870
 4687UDC     C251548  19.337  19.993  11.204  0.4640 -0.0369  0.4497
 4687UDC     C351549  19.405  19.906  11.311 -0.0477  0.4547  1.4055
 4687UDC     C451550  19.551  19.973  11.331 -0.6828  0.5843 -0.6718
 4687UDC     C551551  19.665  19.880  11.286 -0.5915  0.2021 -0.1660
 4687UDC     C651552  19.789  19.961  11.267 -0.5076 -0.4273 -0.2169
 4687UDC     C751553  19.896  19.882  11.194 -0.6074 -0.4576 -0.0010
 4687UDC     C851554  20.013  19.970  11.129  0.1454  0.3074 -0.1487
 4687UDC     C951555  19.954  20.085  11.056  0.6464  0.5656  1.0967
 4687UDC    C1051556  20.068  20.196  11.046  0.4804 -0.3265  0.7077
 4687UDC    C1151557  20.221  20.165  11.037 -0.6118  0.3476  0.0253
 4688UDC     C151558  19.121   0.890  14.763  0.5610  0.6860 -0.2304
 4688UDC     C251559  19.163   0.989  14.654 -0.5329  1.1835 -0.9079
 4688UDC     C351560  19.233   0.920  14.532  1.4566  0.0560 -0.0292
 4688UDC     C451561  19.309   1.019  14.443 -0.2201 -0.6353  0.2180
 4688UDC     C551562  19.228   1.125  14.372 -0.0183  0.5539 -0.9337
 4688UDC     C651563  19.310   1.242  14.322 -0.3024  1.0579  0.3805
 4688UDC     C751564  19.228   1.365  14.294  0.2592  0.0807 -0.1096
 4688UDC     C851565  19.317   1.490  14.281  0.0138  0.7005  1.2297
 4688UDC     C951566  19.242   1.613  14.241 -0.5851  0.1923  0.2119
 4688UDC    C1051567  19.335   1.728  14.189  0.3648  0.5042  0.2217
 4688UDC    C1151568  19.272   1.869  14.226 -0.2339 -0.4423  0.3871
 4689UDC     C151569   2.285   8.132  11.877 -0.5140 -0.6827  0.2370
 4689UDC     C251570   2.288   8.207  12.010  0.3131 -0.0915  1.0205
 4689UDC     C351571   2.181   8.313  12.012  0.6628  0.1732 -0.1157
 4689UDC     C451572   2.221   8.450  11.939  0.5942  1.0256  0.9193
 4689UDC     C551573   2.124   8.494  11.824  0.8543 -0.0308 -0.1491
 4689UDC     C651574   1.977   8.500  11.874 -0.1282  0.5361 -1.0190
 4689UDC     C751575   1.914   8.620  11.797 -0.5796 -0.0121 -0.1939
 4689UDC     C851576   1.791   8.587  11.711  0.4346 -0.8169 -0.2379
 4689UDC     C951577   1.816   8.553  11.566  0.8721 -0.8197 -0.5962
 4689UDC    C1051578   1.837   8.396  11.547 -0.0280 -0.2647 -0.1807
 4689UDC    C1151579   1.885   8.376  11.406 -0.4952 -0.0506  0.0231
 4690UDC     C151580  14.907   2.171   7.958 -0.5579 -0.5645  0.0613
 4690UDC     C251581  14.831   2.068   8.037 -0.4783  1.5287 -0.1586
 4690UDC     C351582  14.833   1.941   7.953 -0.6435  1.0159 -0.2996
 4690UDC     C451583  14.735   1.831   7.985 -0.1067  0.9140  0.9221
 4690UDC     C551584  14.741   1.741   7.861  0.5668 -0.6699  1.1721
 4690UDC     C651585  14.763   1.592   7.881  0.7827  0.6318 -0.8401
 4690UDC     C751586  14.645   1.494   7.921 -0.6131  0.1099  0.3591
 4690UDC     C851587  14.719   1.371   7.974  0.4634 -0.8584 -0.7277
 4690UDC     C951588  14.662   1.339   8.113  0.9065 -0.0384  0.3326
 4690UDC    C1051589  14.709   1.215   8.172 -0.4335  0.8156 -0.2789
 4690UDC    C1151590  14.659   1.221   8.314 -0.0171 -0.1209  0.9321
 4691UDC     C151591   0.047  14.778  12.404 -0.0755 -0.1682 -0.6033
 4691UDC     C251592   0.073  14.774  12.249 -0.4065 -0.1059 -1.1020
 4691UDC     C351593  -0.025  14.671  12.191 -0.1226  1.4653  0.2193
 4691UDC     C451594  -0.170  14.695  12.217  0.3696  0.3698  0.6515
 4691UDC     C551595  -0.230  14.723  12.075  0.0204  0.2051 -0.1342
 4691UDC     C651596  -0.378  14.755  12.088 -0.7641 -0.3539  0.0068
 4691UDC     C751597  -0.486  14.652  12.093  0.6186  1.1014 -0.4303
 4691UDC     C851598  -0.520  14.582  11.962  1.7296  0.5353  0.6483
 4691UDC     C951599  -0.615  14.470  11.972  0.2634  0.3865  0.2697
 4691UDC    C1051600  -0.675  14.403  11.845 -0.5444  0.0060 -0.1900
 4691UDC    C1151601  -0.748  14.493  11.746 -0.3813  0.2588 -0.1591
 4692UDC     C151602  19.134   4.247   8.079 -0.0607 -0.0407  0.5902
 4692UDC     C251603  19.007   4.161   8.049 -0.0558 -0.1586 -0.1614
 4692UDC     C351604  19.030   4.039   7.964 -0.0149  0.4720  0.2799
 4692UDC     C451605  18.914   3.935   7.962 -0.4545  0.2273  1.2916
 4692UDC     C551606  18.829   3.935   8.084 -0.0527 -0.0795  0.6127
 4692UDC     C651607  18.760   3.800   8.098 -0.8148  0.5568  0.2233
 4692UDC     C751608  18.691   3.779   8.230  1.3882 -1.2968 -0.0655
 4692UDC     C851609  18.764   3.726   8.353 -0.1985 -0.2417  0.3785
 4692UDC     C951610  18.788   3.574   8.338 -0.3031  0.7825  0.5202
 4692UDC    C1051611  18.825   3.503   8.467 -0.0769  0.7281 -0.3458
 4692UDC    C1151612  18.971   3.521   8.531  0.7281 -0.8028  0.0312
 4693UDC     C151613   1.225  14.603   8.570  0.1591 -0.3348 -0.8802
 4693UDC     C251614   1.101  14.544   8.505 -0.4926  0.8065 -0.9684
 4693UDC     C351615   1.038  14.431   8.589 -1.8896 -0.3628  0.0507
 4693UDC     C451616   1.017  14.469   8.739  0.9640 -1.4196 -0.4732
 4693UDC     C551617   0.969  14.342   8.813 -0.1754  0.5376 -0.2606
 4693UDC     C651618   0.971  14.379   8.967 -1.3661 -0.0108  1.6124
 4693UDC     C751619   1.117  14.371   9.018  0.1566  0.2463  0.4600
 4693UDC     C851620   1.133  14.401   9.173 -0.5468  0.2283  0.4711
 4693UDC     C951621   1.057  14.313   9.262 -0.1315  1.0286 -0.6497
 4693UDC    C1051622   0.994  14.401   9.372 -0.0726 -0.9867 -0.2917
 4693UDC    C1151623   0.877  14.483   9.327 -0.6209  0.0690  0.5733
 4694UDC     C151624  15.913  10.479  16.067  1.0200 -0.3952 -0.3643
 4694UDC     C251625  15.863  10.353  16.151  0.3885 -1.2451  1.0668
 4694UDC     C351626  15.833  10.230  16.066 -0.3729  0.3564  0.4322
 4694UDC     C451627  15.785  10.124  16.170  0.8540 -0.5803 -0.5681
 4694UDC     C551628  15.777   9.993  16.093  0.6288  0.5206  1.1357
 4694UDC     C651629  15.718   9.885  16.182  0.5122 -0.8638  0.0665
 4694UDC     C751630  15.813   9.805  16.269 -0.3345  0.4129 -0.2917
 4694UDC     C851631  15.747   9.713  16.369 -0.8020 -0.1588 -0.7267
 4694UDC     C951632  15.833   9.650  16.483 -0.9120  1.0228 -1.2829
 4694UDC    C1051633  15.877   9.740  16.602  0.3637 -0.3681 -0.7990
 4694UDC    C1151634  15.929   9.661  16.722  0.2658  0.4938  0.4758
 4695UDC     C151635   4.282   8.792   0.756  0.2274 -0.8316 -0.2433
 4695UDC     C251636   4.282   8.790   0.607 -0.4707 -0.0920  0.1012
 4695UDC     C351637   4.389   8.709   0.533  0.4837 -0.3212 -0.5235
 4695UDC     C451638   4.375   8.686   0.383 -0.5125  0.2728 -0.0151
 4695UDC     C551639   4.433   8.797   0.294  0.6224  0.4760  0.6534
 4695UDC     C651640   4.544   8.737   0.204 -0.3272 -0.7898 -0.0260
 4695UDC     C751641   4.619   8.857   0.135  1.3892  0.1072 -0.5609
 4695UDC     C851642   4.670   8.917   0.262  0.0262 -0.8427 -0.0267
 4695UDC     C951643   4.772   9.030   0.231 -0.5924  0.2538 -0.0703
 4695UDC    C1051644   4.762   9.140   0.339 -0.1342  0.7127 -0.3087
 4695UDC    C1151645   4.796   9.091   0.484  0.4716 -0.4042 -0.7147
 4696UDC     C151646  12.663  13.708   4.856 -0.9161 -1.5853 -0.4372
 4696UDC     C251647  12.739  13.580   4.839 -0.4913  0.0699  0.2819
 4696UDC     C351648  12.851  13.564   4.729 -0.5860 -0.1610 -0.1622
 4696UDC     C451649  12.775  13.594   4.604 -0.0949  0.5303  0.8302
 4696UDC     C551650  12.867  13.656   4.497  0.0122 -0.0635 -0.1391
 4696UDC     C651651  12.793  13.640   4.361  0.5161  0.8241  0.7677
 4696UDC     C751652  12.877  13.690   4.245  1.2523  0.4192  0.3220
 4696UDC     C851653  12.980  13.593   4.192 -1.2190  0.4370  0.0177
 4696UDC     C951654  13.097  13.666   4.127 -0.3005  0.9446 -0.2159
 4696UDC    C1051655  13.173  13.771   4.206  0.3178 -0.1275  0.2801
 4696UDC    C1151656  13.270  13.871   4.149 -2.1859  1.0031  0.6110
 4697UDC     C151657   3.931  12.824   7.911  1.3261  0.1787  0.3679
 4697UDC     C251658   3.832  12.881   8.016  0.8251 -0.1456 -0.3972
 4697UDC     C351659   3.855  13.031   8.047 -0.0597 -0.9108 -0.1048
 4697UDC     C451660   3.738  13.137   8.067 -0.5794  0.9205  0.1756
 4697UDC     C551661   3.773  13.278   8.026 -0.5982 -0.3362  0.1212
 4697UDC     C651662   3.660  13.385   8.026 -1.4701  0.4726 -0.1575
 4697UDC     C751663   3.540  13.350   7.931 -0.4225  0.2874 -0.4852
 4697UDC     C851664   3.571  13.289   7.793  1.2362  0.1630 -0.4587
 4697UDC     C951665   3.507  13.343   7.664  0.4402  0.1439  0.5965
 4697UDC    C1051666   3.510  13.242   7.547  0.3774 -0.1690  0.3630
 4697UDC    C1151667   3.563  13.305   7.415  0.0471 -0.7802 -0.8365
 4698UDC     C151668   5.027   6.871  11.405 -0.4137  0.3297  0.8725
 4698UDC     C251669   4.925   6.877  11.291 -0.5501  0.1412  0.3208
 4698UDC     C351670   4.786   6.937  11.318  0.3374  0.7581 -0.9621
 4698UDC     C451671   4.709   6.937  11.183 -0.4992 -0.4990 -0.0353
 4698UDC     C551672   4.561   6.882  11.180 -0.8405  0.1237 -0.3234
 4698UDC     C651673   4.562   6.739  11.128 -0.4567 -0.2093  0.4306
 4698UDC     C751674   4.447   6.664  11.195  0.7714 -0.1673 -0.1929
 4698UDC     C851675   4.315   6.720  11.134  0.4046 -0.4779  0.0494
 4698UDC     C951676   4.227   6.607  11.080 -1.1782 -0.6969 -0.3055
 4698UDC    C1051677   4.306   6.501  10.998 -0.6678 -0.0238 -0.1044
 4698UDC    C1151678   4.250   6.376  10.924 -0.3870 -0.4873 -0.2463
 4699UDC     C151679  12.453  10.788   2.595 -0.6272  1.0108 -0.5809
 4699UDC     C251680  12.512  10.681   2.499  1.1458 -1.0959 -0.2168
 4699UDC     C351681  12.380  10.619   2.438 -1.1534 -0.5740  0.4632
 4699UDC     C451682  12.430  10.490   2.364 -0.3522  1.0823 -0.5127
 4699UDC     C551683  12.307  10.403   2.344 -0.2038 -0.2490 -0.1171
 4699UDC     C651684  12.362  10.282   2.259 -0.1411  0.2182  1.5771
 4699UDC     C751685  12.241  10.219   2.190  0.3316  0.0322  0.3444
 4699UDC     C851686  12.122  10.168   2.274 -0.1694  1.1126 -1.0477
 4699UDC     C951687  11.986  10.188   2.199 -1.1084 -0.1477 -0.8142
 4699UDC    C1051688  11.959  10.343   2.174  1.4727  0.1527 -2.0951
 4699UDC    C1151689  11.862  10.393   2.276 -0.6973 -0.4859  0.1483
 4700UDC     C151690  11.904   8.375   4.926  0.5967  0.2613  0.6937
 4700UDC     C251691  11.826   8.266   4.856  0.2933 -0.0649  0.1959
 4700UDC     C351692  11.911   8.148   4.822 -0.3951 -0.0490 -0.0076
 4700UDC     C451693  11.836   8.018   4.802 -0.2654 -0.7477  0.3774
 4700UDC     C551694  11.920   7.890   4.810 -0.1892 -0.1695 -0.4102
 4700UDC     C651695  11.985   7.851   4.946  0.2333 -0.0673 -0.1350
 4700UDC     C751696  12.093   7.742   4.929 -0.5610  0.5503  0.0809
 4700UDC     C851697  12.158   7.698   5.061 -0.8115  1.2925  0.1607
 4700UDC     C951698  12.304   7.650   5.067 -0.3927 -0.4348 -0.4203
 4700UDC    C1051699  12.350   7.606   5.205 -0.3644  0.8004 -0.4812
 4700UDC    C1151700  12.366   7.454   5.181  0.2423  0.2736  0.1440
 4701UDC     C151701  19.531   3.690   5.367  1.0201  0.7974 -0.4808
 4701UDC     C251702  19.497   3.804   5.274  1.6044 -1.0445  0.1226
 4701UDC     C351703  19.539   3.932   5.350 -0.1543 -0.7556  0.5531
 4701UDC     C451704  19.601   4.031   5.251  0.5619  0.0925  0.3045
 4701UDC     C551705  19.661   4.147   5.333 -0.7118  0.0919  0.3890
 4701UDC     C651706  19.818   4.127   5.338 -0.1333  0.9701  0.0084
 4701UDC     C751707  19.901   4.253   5.357  0.1037  1.0094 -0.4234
 4701UDC     C851708  20.024   4.220   5.445 -0.1641 -0.1233  1.2173
 4701UDC     C951709  20.129   4.332   5.458  0.6479  1.4887 -0.3540
 4701UDC    C1051710  20.215   4.378   5.339 -0.5856  0.1784 -0.8158
 4701UDC    C1151711  20.324   4.473   5.395 -0.6135  0.1440 -0.2867
 4702UDC     C151712   3.757   9.002  12.789  0.1937  0.2708 -0.3043
 4702UDC     C251713   3.610   9.020  12.823 -1.0988  0.2263 -0.7790
 4702UDC     C351714   3.518   9.068  12.703 -0.2554  0.3760 -1.1303
 4702UDC     C451715   3.515   8.969  12.592 -0.5080  0.0669 -1.1424
 4702UDC     C551716   3.435   9.029  12.471 -0.8687  0.7402  0.8566
 4702UDC     C651717   3.474   8.934  12.354  0.0360 -0.4154 -0.2347
 4702UDC     C751718   3.622   8.895  12.305  0.1363 -2.1282  0.4491
 4702UDC     C851719   3.674   8.973  12.172  0.5870 -1.4485  0.4881
 4702UDC     C951720   3.660   8.902  12.032 -0.5198 -0.3516  0.3007
 4702UDC    C1051721   3.515   8.870  11.993  0.6928  0.1908  0.1872
 4702UDC    C1151722   3.423   8.996  12.001  0.4111 -0.3168  0.8402
 4703UDC     C151723   7.072  15.946   7.353 -0.6735 -0.7871 -0.1295
 4703UDC     C251724   7.070  16.098   7.398 -0.6170  0.0854 -1.1220
 4703UDC     C351725   6.919  16.145   7.376 -1.2813 -0.3327 -1.0059
 4703UDC     C451726   6.890  16.296   7.352  1.2008 -0.3353 -0.7226
 4703UDC     C551727   6.744  16.310   7.386 -0.3503  0.4023  0.0356
 4703UDC     C651728   6.662  16.222   7.293  0.6249  0.4604 -0.1286
 4703UDC     C751729   6.542  16.303   7.255 -0.1585  0.6792  1.0830
 4703UDC     C851730   6.489  16.271   7.113  0.6341  0.2486  0.3467
 4703UDC     C951731   6.379  16.374   7.078 -0.1140  1.2082  0.2506
 4703UDC    C1051732   6.332  16.360   6.934 -0.7211  0.6042 -1.0958
 4703UDC    C1151733   6.284  16.498   6.890 -0.5343 -0.7056  0.1620
 4704UDC     C151734   2.902  10.101  18.941  0.3366 -0.3686  0.3071
 4704UDC     C251735   2.948   9.956  18.981 -0.9183 -0.2818  0.1078
 4704UDC     C351736   2.951   9.851  18.866  0.1665 -0.1965 -0.3826
 4704UDC     C451737   3.047   9.854  18.749  0.4700  0.6997  1.0387
 4704UDC     C551738   3.030   9.725  18.662  0.8633  0.5450 -0.2495
 4704UDC     C651739   2.983   9.746  18.522 -0.1418  0.2092  0.1650
 4704UDC     C751740   2.831   9.785  18.499 -1.5208 -0.3424  0.1591
 4704UDC     C851741   2.799   9.736  18.352  0.0039 -0.4226 -0.6748
 4704UDC     C951742   2.655   9.764  18.305  0.5998  0.1977  0.5570
 4704UDC    C1051743   2.537   9.682  18.358 -0.5180 -0.3244 -0.0731
 4704UDC    C1151744   2.490   9.661  18.502  0.5916 -0.4708 -0.1004
 4705UDC     C151745  14.076   3.222  18.037  0.3307  0.0532  0.5039
 4705UDC     C251746  14.169   3.217  17.924 -0.5199 -1.1709  0.0724
 4705UDC     C351747  14.238   3.349  17.873  0.6073 -0.1800  0.4203
 4705UDC     C451748  14.343   3.425  17.952 -0.7509 -0.5432 -0.1665
 4705UDC     C551749  14.482   3.365  17.962 -0.0988  0.7540  0.1615
 4705UDC     C651750  14.612   3.440  17.912  0.3419  0.3638  1.0468
 4705UDC     C751751  14.752   3.368  17.954 -0.9494  0.1380  0.0313
 4705UDC     C851752  14.792   3.242  17.860 -0.4035 -0.3266 -1.0448
 4705UDC     C951753  14.919   3.164  17.898  0.2741  0.4088  1.1345
 4705UDC    C1051754  15.011   3.119  17.779 -0.1751  0.0909  0.1500
 4705UDC    C1151755  15.134   3.060  17.853 -0.2215 -1.2805  0.3480
 4706UDC     C151756   8.674   1.368   9.338 -0.4908 -1.0697  0.4385
 4706UDC     C251757   8.526   1.372   9.296 -0.9559  0.1331 -1.4579
 4706UDC     C351758   8.465   1.258   9.220 -0.2015  0.8613  0.6249
 4706UDC     C451759   8.550   1.228   9.093  0.5331  0.0143  0.4791
 4706UDC     C551760   8.606   1.082   9.086  0.4831  0.1291  0.3556
 4706UDC     C651761   8.704   1.044   8.972  0.3772  0.5299  0.1920
 4706UDC     C751762   8.793   0.929   9.014  0.0282  0.9891  0.9135
 4706UDC     C851763   8.730   0.786   8.987 -0.5640 -0.7312  0.6342
 4706UDC     C951764   8.667   0.719   9.114 -0.7687 -0.0604  0.2496
 4706UDC    C1051765   8.621   0.573   9.086 -0.4522 -0.1975  0.0116
 4706UDC    C1151766   8.585   0.483   9.205 -0.2027  0.3080  0.2600
 4707UDC     C151767   1.827  14.766  18.035 -0.2097  1.0605  0.7379
 4707UDC     C251768   1.676  14.755  17.990 -0.1752  0.2713  0.0158
 4707UDC     C351769   1.659  14.870  17.885  0.5941  0.2924 -0.8834
 4707UDC     C451770   1.517  14.866  17.832 -0.0359  0.5992 -0.3707
 4707UDC     C551771   1.465  14.986  17.759  0.9205  0.1671 -0.5681
 4707UDC     C651772   1.339  14.987  17.676 -0.6699 -0.4573  0.6918
 4707UDC     C751773   1.333  15.127  17.613  0.6855  0.3875 -0.7181
 4707UDC     C851774   1.307  15.229  17.727  0.2902  0.2347 -1.1358
 4707UDC     C951775   1.236  15.370  17.693 -0.3362 -0.5288 -0.0844
 4707UDC    C1051776   1.086  15.374  17.669 -0.3998  0.8207  0.3918
 4707UDC    C1151777   1.025  15.508  17.677  0.7999 -0.1215  0.4604
 4708UDC     C151778  17.251   4.121   6.743  0.6533  0.6513 -0.4904
 4708UDC     C251779  17.340   4.225   6.814  0.1589  0.8549  0.3925
 4708UDC     C351780  17.331   4.371   6.780 -0.2622  0.0667 -0.4097
 4708UDC     C451781  17.189   4.428   6.779  0.0671  1.3223 -0.6102
 4708UDC     C551782  17.184   4.569   6.711 -0.4149 -0.0999 -0.5495
 4708UDC     C651783  17.054   4.601   6.643 -0.2513 -0.4990  0.1040
 4708UDC     C751784  17.061   4.675   6.506 -0.1851 -1.0078 -0.9786
 4708UDC     C851785  16.970   4.793   6.507  0.5835  0.3075 -0.8021
 4708UDC     C951786  16.858   4.825   6.406 -0.2389  0.8303 -1.0482
 4708UDC    C1051787  16.750   4.931   6.443 -0.3709 -0.3865 -0.0951
 4708UDC    C1151788  16.658   4.954   6.322 -0.2707 -1.1169 -0.0785
 4709UDC     C151789  13.980  19.688  15.957 -0.1754 -1.6020 -0.5398
 4709UDC     C251790  14.127  19.691  16.005  0.3311  0.2045  0.4722
 4709UDC     C351791  14.135  19.726  16.153  0.7483 -0.6357  1.2559
 4709UDC     C451792  14.083  19.865  16.204 -0.4162  0.7923  0.2389
 4709UDC     C551793  14.061  19.876  16.355  0.1970 -0.2824  1.2095
 4709UDC     C651794  14.180  19.822  16.445  0.6491  0.2611 -0.1410
 4709UDC     C751795  14.153  19.821  16.596 -0.7751 -0.6791 -1.1579
 4709UDC     C851796  14.256  19.757  16.692 -0.3819 -0.9489  0.2626
 4709UDC     C951797  14.190  19.663  16.795  0.0954  0.5964 -0.4571
 4709UDC    C1051798  14.279  19.616  16.910  0.6646  0.2983 -0.9329
 4709UDC    C1151799  14.180  19.529  16.993 -1.0090  0.6687  1.6542
 4710UDC     C151800   0.743   0.756   1.589  0.5638 -0.8977 -0.1098
 4710UDC     C251801   0.815   0.829   1.478 -0.6470  0.8093  0.0477
 4710UDC     C351802   0.956   0.865   1.527 -0.0387 -1.0687  0.4025
 4710UDC     C451803   1.015   0.983   1.448 -0.7033 -0.2040  0.3995
 4710UDC     C551804   1.134   1.058   1.516  0.5765  0.1818  0.5210
 4710UDC     C651805   1.133   1.139   1.646 -0.6007  0.1291  0.1996
 4710UDC     C751806   1.028   1.251   1.660  0.4084  0.1484 -0.2906
 4710UDC     C851807   0.929   1.215   1.769 -0.0269  0.4908  0.0980
 4710UDC     C951808   0.870   1.327   1.852  0.2581 -0.3809  0.0152
 4710UDC    C1051809   0.770   1.275   1.954  0.8257  0.5438  0.5109
 4710UDC    C1151810   0.830   1.148   2.023 -0.4008 -0.9964 -0.7118
 4711UDC     C151811   4.050   6.307  15.765 -0.4312 -0.6847  0.2534
 4711UDC     C251812   4.119   6.303  15.626  1.2071  0.2059  0.9170
 4711UDC     C351813   4.118   6.158  15.556 -1.0292 -0.4922 -0.1038
 4711UDC     C451814   3.996   6.073  15.556  0.4041 -0.7815  1.1326
 4711UDC     C551815   3.887   6.113  15.458 -0.4912  0.3572  0.3228
 4711UDC     C651816   3.739   6.073  15.485 -0.5358  0.0926 -0.0637
 4711UDC     C751817   3.726   5.922  15.491 -0.6011  0.9996 -0.0420
 4711UDC     C851818   3.589   5.853  15.527 -0.1894 -0.4093  0.0604
 4711UDC     C951819   3.573   5.718  15.460  0.3632 -0.4141 -0.4434
 4711UDC    C1051820   3.451   5.628  15.504 -0.2622 -0.1711  0.7081
 4711UDC    C1151821   3.422   5.511  15.416 -1.2724 -0.0872 -0.1421
 4712UDC     C151822  10.614   3.155   1.263  0.0953  0.1480  0.0525
 4712UDC     C251823  10.523   3.243   1.173 -0.9677  0.8031  0.7069
 4712UDC     C351824  10.535   3.202   1.021  0.3118 -0.9906  0.1795
 4712UDC     C451825  10.495   3.063   1.001  0.7309 -0.8170  0.1769
 4712UDC     C551826  10.430   3.034   0.868 -0.4880  0.5412  0.7209
 4712UDC     C651827  10.283   2.989   0.879  0.6603  0.3340 -0.3381
 4712UDC     C751828  10.236   2.910   0.764  0.0571 -0.2655  0.3366
 4712UDC     C851829  10.084   2.877   0.781  0.1734 -0.4842 -0.3202
 4712UDC     C951830   9.999   3.005   0.805 -0.0077 -0.2441  0.1511
 4712UDC    C1051831   9.879   3.033   0.896 -0.3994  0.1491 -0.3956
 4712UDC    C1151832   9.923   3.060   1.049  0.0095 -0.7175  0.0690
 4713UDC     C151833   8.766   8.856   2.010 -0.3757  0.4782 -0.2500
 4713UDC     C251834   8.868   8.961   2.065  0.2978  0.0750  0.2787
 4713UDC     C351835   9.006   8.937   2.113 -0.5612  0.2617 -0.6218
 4713UDC     C451836   9.005   8.856   2.243  0.3526  0.5852 -0.0932
 4713UDC     C551837   8.955   8.937   2.361 -0.1713  0.0590  0.0708
 4713UDC     C651838   8.980   8.837   2.480  0.0151 -0.5533  0.5989
 4713UDC     C751839   8.888   8.717   2.480  0.4681 -0.2339  0.4288
 4713UDC     C851840   8.906   8.621   2.596  0.1004  0.5116  0.8706
 4713UDC     C951841   8.796   8.512   2.618  0.2893 -0.1981 -1.6134
 4713UDC    C1051842   8.724   8.496   2.759 -0.1348 -0.5878  0.2360
 4713UDC    C1151843   8.617   8.380   2.761 -0.9501  0.1282  0.2664
 4714UDC     C151844   3.091  14.259   8.272 -0.0440 -0.0932 -0.1340
 4714UDC     C251845   3.081  14.253   8.430 -0.7804 -0.1886 -0.5153
 4714UDC     C351846   3.222  14.292   8.485 -0.8018 -0.0246  0.0854
 4714UDC     C451847   3.313  14.187   8.439 -1.3235  0.1010 -0.0963
 4714UDC     C551848   3.283  14.041   8.479  0.6015 -0.1218 -1.3979
 4714UDC     C651849   3.391  13.940   8.470 -0.3145  0.2200 -0.1867
 4714UDC     C751850   3.435  13.902   8.333 -0.3592 -0.2358  0.9210
 4714UDC     C851851   3.337  13.830   8.232 -0.6860  0.0683 -0.8417
 4714UDC     C951852   3.333  13.850   8.077 -0.6393 -1.1618 -0.1180
 4714UDC    C1051853   3.240  13.766   7.985  0.3091  1.3688 -1.0751
 4714UDC    C1151854   3.240  13.819   7.844  0.2126  0.4420 -0.4965
 4715UDC     C151855   0.224  12.732   5.953  0.5840 -0.2490 -1.0992
 4715UDC     C251856   0.192  12.662   6.089  0.3799  0.2538  0.4207
 4715UDC     C351857   0.061  12.720   6.145 -0.6608  0.7536 -0.7094
 4715UDC     C451858   0.059  12.721   6.297 -0.3097 -0.8149  0.4132
 4715UDC     C551859   0.186  12.776   6.362 -1.1752  0.5928 -0.3000
 4715UDC     C651860   0.154  12.751   6.505 -0.3420 -0.7841 -0.6222
 4715UDC     C751861   0.134  12.598   6.528 -0.5497 -0.1336  0.6630
 4715UDC     C851862   0.132  12.575   6.686  1.4221  0.0905  1.1707
 4715UDC     C951863   0.167  12.435   6.750  0.6938  0.9367 -0.7673
 4715UDC    C1051864   0.189  12.424   6.904 -0.1787 -0.5723  0.2321
 4715UDC    C1151865   0.320  12.494   6.958  1.0213  0.5512 -0.3305
 4716UDC     C151866  18.161  16.703  19.250 -0.9112  0.5294  0.0659
 4716UDC     C251867  18.265  16.601  19.306  0.0439  0.1920 -0.2709
 4716UDC     C351868  18.264  16.465  19.228  0.0699 -1.1202 -0.0337
 4716UDC     C451869  18.121  16.406  19.224 -0.9508 -0.5242 -0.0181
 4716UDC     C551870  18.088  16.300  19.334 -0.7955  0.5504  0.5224
 4716UDC     C651871  17.954  16.223  19.313  0.2219 -0.2541  0.3027
 4716UDC     C751872  17.956  16.077  19.366  0.7143  0.0869  0.1698
 4716UDC     C851873  17.817  16.026  19.338 -0.4595  0.3128  0.1428
 4716UDC     C951874  17.784  15.987  19.188 -0.3031  0.0803 -0.1394
 4716UDC    C1051875  17.749  15.833  19.160 -0.0146  0.6150 -1.2274
 4716UDC    C1151876  17.615  15.795  19.224 -0.6408 -0.1678 -1.2652
 4717UDC     C151877   7.356  12.530   9.810  0.5809 -0.2146  0.0656
 4717UDC     C251878   7.435  12.486   9.683 -0.1176 -0.1733 -1.0695
 4717UDC     C351879   7.344  12.460   9.562 -0.2475 -0.6315  0.3354
 4717UDC     C451880   7.289  12.586   9.499  0.4100 -1.6278  0.6915
 4717UDC     C551881   7.207  12.559   9.372 -1.4381  0.1234  0.2727
 4717UDC     C651882   7.133  12.685   9.327  1.1064  0.3543 -0.4761
 4717UDC     C751883   7.196  12.745   9.195  0.9190 -0.2354 -1.1036
 4717UDC     C851884   7.139  12.882   9.153 -0.8167  0.2676  0.4563
 4717UDC     C951885   6.993  12.879   9.127  1.0729  0.0281  0.8708
 4717UDC    C1051886   6.950  12.968   9.007 -0.5408  0.7179 -0.0814
 4717UDC    C1151887   7.053  12.954   8.881  1.3586 -0.3959  0.3496
 4718UDC     C151888  13.793  12.328  16.400  0.4722  0.6933 -0.5513
 4718UDC     C251889  13.833  12.179  16.386 -1.1294  0.1975 -0.8172
 4718UDC     C351890  13.718  12.090  16.436 -0.1926 -0.6473  0.5407
 4718UDC     C451891  13.615  12.043  16.332 -0.5681 -0.0541 -0.5294
 4718UDC     C551892  13.684  11.915  16.272  0.7574  0.3323  1.2955
 4718UDC     C651893  13.581  11.850  16.179  0.6444 -0.3450 -0.0648
 4718UDC     C751894  13.629  11.728  16.103 -0.5360 -0.1376  0.7475
 4718UDC     C851895  13.548  11.632  16.012 -0.3789  0.2459 -0.3201
 4718UDC     C951896  13.557  11.609  15.864 -0.5709  0.7410  0.2597
 4718UDC    C1051897  13.704  11.621  15.823 -0.9104 -0.0739  0.2233
 4718UDC    C1151898  13.749  11.762  15.770  0.9373  0.3586  0.2692
 4719UDC     C151899  17.551   0.075   6.110  0.4533 -0.0021  0.0064
 4719UDC     C251900  17.573   0.201   6.022  0.5877 -0.8669 -0.4958
 4719UDC     C351901  17.687   0.302   6.080  0.1305  0.0409  0.0616
 4719UDC     C451902  17.817   0.295   5.999 -0.7241  0.9433 -0.8204
 4719UDC     C551903  17.812   0.301   5.845 -0.1200 -0.5136 -0.6558
 4719UDC     C651904  17.946   0.290   5.767 -0.9181  0.3764 -0.3522
 4719UDC     C751905  18.063   0.382   5.831  0.1734  0.0456  0.4029
 4719UDC     C851906  18.186   0.385   5.740  0.1674  0.3348  1.2784
 4719UDC     C951907  18.306   0.441   5.808  0.9522  0.0259  0.1225
 4719UDC    C1051908  18.428   0.451   5.717 -0.2996 -0.1280  0.7237
 4719UDC    C1151909  18.419   0.570   5.616  0.3259  0.0833 -0.1836
 4720UDC     C151910  16.744   6.009   3.766  0.6840  0.7097  0.4949
 4720UDC     C251911  16.701   6.115   3.659 -0.5742 -0.5786  0.3539
 4720UDC     C351912  16.819   6.206   3.626 -0.0876 -0.5567 -0.2873
 4720UDC     C451913  16.877   6.293   3.743  0.1280  0.1781  0.4172
 4720UDC     C551914  16.794   6.419   3.780 -0.3107  1.0588  1.2257
 4720UDC     C651915  16.811   6.434   3.932  0.7434 -1.2735 -0.8952
 4720UDC     C751916  16.720   6.536   4.007 -0.7172 -0.2406  0.1711
 4720UDC     C851917  16.737   6.533   4.164  0.1515  0.8692  0.1884
 4720UDC     C951918  16.667   6.652   4.223 -0.1591 -0.5047 -1.0092
 4720UDC    C1051919  16.696   6.647   4.374 -0.9780 -0.2009 -0.2109
 4720UDC    C1151920  16.638   6.778   4.437  0.3337 -0.9644  0.3964
 4721UDC     C151921  16.383   4.069   8.076  0.0956 -0.0136  0.3067
 4721UDC     C251922  16.479   4.160   8.011 -0.5634 -0.5097  0.3489
 4721UDC     C351923  16.607   4.183   8.088 -0.1341  0.4484  0.1179
 4721UDC     C451924  16.661   4.325   8.062  0.0145  0.4901  1.1861
 4721UDC     C551925  16.782   4.325   7.968 -1.1499  0.4470 -0.3667
 4721UDC     C651926  16.819   4.472   7.961  0.2073 -0.5902 -0.8304
 4721UDC     C751927  16.884   4.530   7.834  0.4956  0.1081 -0.3031
 4721UDC     C851928  16.872   4.671   7.777  0.9917 -1.0895  0.0263
 4721UDC     C951929  16.722   4.710   7.747  0.1820 -0.0371 -0.0524
 4721UDC    C1051930  16.665   4.842   7.791  0.0025 -0.0931  0.4714
 4721UDC    C1151931  16.530   4.900   7.757  0.4781 -0.3317 -0.5046
 4722UDC     C151932   8.614   8.843  19.814 -0.1494 -0.6253  0.0456
 4722UDC     C251933   8.572   8.928  19.689 -0.3197  0.8379  0.4554
 4722UDC     C351934   8.463   8.861  19.606  0.9220  0.3716  0.0352
 4722UDC     C451935   8.443   8.914  19.466  0.4480 -0.7068  0.0717
 4722UDC     C551936   8.319   8.855  19.393 -0.7911 -0.4535 -0.2994
 4722UDC     C651937   8.208   8.939  19.456  0.7542 -0.0767  0.4567
 4722UDC     C751938   8.109   8.823  19.475 -0.2184  0.2125 -0.1301
 4722UDC     C851939   7.989   8.884  19.552 -0.6849 -0.3361  0.0746
 4722UDC     C951940   8.053   8.964  19.660  1.1794 -0.7938  0.2407
 4722UDC    C1051941   7.973   9.013  19.781 -0.3488  0.2100  0.7094
 4722UDC    C1151942   8.006   8.930  19.905 -0.3771 -0.5173 -0.2865
 4723UDC     C151943   2.369   0.229   2.387  1.3240 -0.2095  0.1687
 4723UDC     C251944   2.519   0.244   2.358  0.5937  0.4889  1.3162
 4723UDC     C351945   2.580   0.135   2.266 -0.7923 -0.1750 -0.5123
 4723UDC     C451946   2.722   0.190   2.218 -0.5900  0.7840  0.1072
 4723UDC     C551947   2.793   0.224   2.352 -0.6995 -0.4726  0.2454
 4723UDC     C651948   2.866   0.116   2.436  0.8738 -0.6255 -0.5849
 4723UDC     C751949   2.987   0.048   2.363 -0.8936  0.3317 -0.2632
 4723UDC     C851950   3.093  -0.033   2.444 -0.0504 -0.0491  0.5210
 4723UDC     C951951   3.197  -0.101   2.353  0.5474  0.5328  0.0040
 4723UDC    C1051952   3.255  -0.238   2.381 -0.6262  0.4272 -0.2827
 4723UDC    C1151953   3.404  -0.271   2.352 -0.2626  0.4270 -0.6122
 4724UDC     C151954  17.018   1.412   7.708  0.2783  0.1106 -0.3164
 4724UDC     C251955  17.153   1.475   7.757  0.4838 -0.8624  1.0783
 4724UDC     C351956  17.130   1.558   7.883  0.3156  1.7219  0.2477
 4724UDC     C451957  17.100   1.460   7.996 -0.3954 -0.9664 -0.1895
 4724UDC     C551958  17.025   1.533   8.113  0.0770  1.4179 -0.1063
 4724UDC     C651959  16.901   1.456   8.168 -0.5386 -0.3195  0.1978
 4724UDC     C751960  16.934   1.335   8.258  0.6820 -0.3430  0.4890
 4724UDC     C851961  17.012   1.353   8.391  0.1407  0.1432  0.6356
 4724UDC     C951962  16.911   1.396   8.504 -0.3568 -0.3395 -0.5812
 4724UDC    C1051963  16.928   1.326   8.639 -0.6545 -1.1356 -1.0321
 4724UDC    C1151964  16.985   1.423   8.750 -0.0763 -1.4291  1.0396
 4725UDC     C151965  15.593   3.345  11.573 -0.8333  0.3776  0.8142
 4725UDC     C251966  15.507   3.244  11.646  0.1287  0.1795 -0.3365
 4725UDC     C351967  15.461   3.127  11.558 -0.4933 -0.0715 -0.6059
 4725UDC     C451968  15.572   3.084  11.469 -0.4601 -0.0242  0.3727
 4725UDC     C551969  15.527   2.969  11.379  0.7211 -0.1776 -0.5468
 4725UDC     C651970  15.640   2.934  11.276 -0.1570  0.0435 -0.4446
 4725UDC     C751971  15.749   3.035  11.247  0.1026  0.2064 -0.0961
 4725UDC     C851972  15.740   3.132  11.131  0.0050  0.4569 -0.1753
 4725UDC     C951973  15.744   3.085  10.988  0.9585  0.3369  0.0852
 4725UDC    C1051974  15.710   3.196  10.887 -0.7370 -0.0078 -0.3619
 4725UDC    C1151975  15.726   3.141  10.744  0.5349  0.5217 -0.6654
 4726UDC     C151976  14.059   5.934   2.507 -0.9542 -0.4958 -1.0518
 4726UDC     C251977  14.163   5.981   2.612  0.2580  0.9939  0.3181
 4726UDC     C351978  14.162   5.900   2.739  0.7584 -0.3808  0.1181
 4726UDC     C451979  14.245   5.951   2.858  0.8095 -0.1053 -0.5283
 4726UDC     C551980  14.266   5.863   2.983  0.9664 -0.4563  0.2737
 4726UDC     C651981  14.363   5.919   3.095 -0.3765 -0.4091  0.3081
 4726UDC     C751982  14.274   5.956   3.208 -0.8386 -0.5483 -0.4276
 4726UDC     C851983  14.372   6.018   3.306  0.1209 -0.5659 -0.9932
 4726UDC     C951984  14.319   6.151   3.357 -0.0794 -0.2695  0.0392
 4726UDC    C1051985  14.417   6.193   3.471 -0.5908 -0.2537 -0.0948
 4726UDC    C1151986  14.390   6.331   3.527  1.1928  0.9585  0.5925
 4727UDC     C151987   8.181   8.084   6.728  0.3886  0.8669 -0.3691
 4727UDC     C251988   8.057   8.146   6.664 -0.0870 -0.2198 -0.5315
 4727UDC     C351989   8.031   8.289   6.728 -0.3874  0.5332 -0.0909
 4727UDC     C451990   7.876   8.308   6.730  0.1896  0.7949  0.4134
 4727UDC     C551991   7.820   8.306   6.583  0.0002  0.1961  0.9398
 4727UDC     C651992   7.669   8.350   6.584 -0.7034 -0.0643  1.1940
 4727UDC     C751993   7.586   8.223   6.614  1.1707 -0.0219  0.0649
 4727UDC     C851994   7.452   8.242   6.698  0.6526  0.5203 -0.9244
 4727UDC     C951995   7.445   8.225   6.849 -0.6370  0.0349 -1.1438
 4727UDC    C1051996   7.304   8.223   6.908 -0.1270  0.7001  0.5566
 4727UDC    C1151997   7.295   8.206   7.060  0.5926  0.3726 -0.8166
 4728UDC     C151998   3.170  19.206   8.914  0.2425 -0.9352 -0.0094
 4728UDC     C251999   3.024  19.257   8.930 -0.6063 -0.7606 -0.3611
 4728UDC     C352000   2.948  19.201   9.055 -0.8705  0.5871  0.1891
 4728UDC     C452001   2.808  19.252   9.045 -0.0309  0.3839  0.2268
 4728UDC     C552002   2.723  19.218   9.163  1.0627 -0.8385  0.2628
 4728UDC     C652003   2.711  19.065   9.174  0.1262 -1.1032  0.6210
 4728UDC     C752004   2.604  19.035   9.277  0.5588 -1.0048 -0.5458
 4728UDC     C852005   2.518  18.912   9.226 -0.4720 -1.8529 -0.2436
 4728UDC     C952006   2.479  18.919   9.079  0.0613 -1.4098  0.1141
 4728UDC    C1052007   2.326  18.895   9.071  0.0130 -0.2576  0.0226
 4728UDC    C1152008   2.261  18.756   9.099 -1.2911  0.1517 -0.3973
 4729UDC     C152009   3.454  15.489   6.744 -0.0194 -0.3245  0.5845
 4729UDC     C252010   3.385  15.382   6.676  1.3345  0.7822 -0.1007
 4729UDC     C352011   3.466  15.353   6.551 -0.0064  0.3004 -0.0174
 4729UDC     C452012   3.416  15.225   6.481  0.0990 -0.4931  0.7493
 4729UDC     C552013   3.490  15.206   6.348 -0.2842 -0.3620  1.1532
 4729UDC     C652014   3.463  15.078   6.252  1.0742 -0.4277  0.5183
 4729UDC     C752015   3.551  15.066   6.130 -0.5180  0.1079 -0.6015
 4729UDC     C852016   3.704  15.056   6.165  0.7507 -0.1006  0.2237
 4729UDC     C952017   3.792  15.053   6.030  0.0200  0.4517  0.8245
 4729UDC    C1052018   3.943  15.049   6.044 -0.7907  1.5328  0.9210
 4729UDC    C1152019   4.022  14.929   6.104 -0.0186 -0.0938  0.7721
 4730UDC     C152020   4.028  11.246   3.191 -0.0189  0.7964  0.6821
 4730UDC     C252021   4.056  11.306   3.054  0.4610 -0.7757 -0.4521
 4730UDC     C352022   4.149  11.434   3.051  1.3925  0.1118 -0.1620
 4730UDC     C452023   4.193  11.479   2.921  0.9765  0.9637  0.0175
 4730UDC     C552024   4.078  11.496   2.829 -0.5434 -0.5307  0.0075
 4730UDC     C652025   4.134  11.462   2.687  0.9932  1.3072  0.7504
 4730UDC     C752026   4.020  11.455   2.583  0.1873 -0.2188  0.7745
 4730UDC     C852027   3.918  11.569   2.592  1.0956  0.1256  0.1396
 4730UDC     C952028   3.799  11.539   2.503 -1.3718 -0.6450  0.4215
 4730UDC    C1052029   3.775  11.664   2.413  0.2348  0.3469 -0.8024
 4730UDC    C1152030   3.640  11.654   2.339  0.0715  0.5163 -0.8300
 4731UDC     C152031   3.200   3.144  14.890 -0.4483 -1.5929  0.6632
 4731UDC     C252032   3.143   3.127  15.030  0.3387  0.1784 -0.9004
 4731UDC     C352033   3.154   3.244  15.137  0.6693 -0.1021 -0.5491
 4731UDC     C452034   3.053   3.356  15.123 -0.1624  0.5310  0.4062
 4731UDC     C552035   2.989   3.389  15.264 -1.1161 -0.2259  0.0432
 4731UDC     C652036   2.879   3.500  15.263 -0.1427 -0.9430  0.0171
 4731UDC     C752037   2.903   3.654  15.279 -0.1347  0.0632  0.0783
 4731UDC     C852038   2.776   3.741  15.297  0.9709 -0.0716 -0.6822
 4731UDC     C952039   2.642   3.688  15.223  0.7911  0.0142 -0.1802
 4731UDC    C1052040   2.513   3.773  15.234  0.4616  1.0057 -0.0951
 4731UDC    C1152041   2.548   3.918  15.199  0.7273 -0.8998  0.3391
 4732UDC     C152042   5.183   6.959   5.482  0.8701  0.2396  0.8980
 4732UDC     C252043   5.297   6.886   5.414 -0.0552 -0.3367  0.6321
 4732UDC     C352044   5.282   6.762   5.326  0.3823 -0.2690  0.5846
 4732UDC     C452045   5.427   6.706   5.283  0.3578  0.6439  0.1301
 4732UDC     C552046   5.513   6.636   5.394 -1.3035  1.0029  0.1565
 4732UDC     C652047   5.499   6.484   5.418  0.4146 -1.1922 -0.4147
 4732UDC     C752048   5.574   6.440   5.546 -0.1559 -0.5919 -0.4351
 4732UDC     C852049   5.582   6.289   5.547 -0.7414 -0.2285  0.1268
 4732UDC     C952050   5.661   6.247   5.672  0.0407  0.5068 -0.3939
 4732UDC    C1052051   5.692   6.098   5.699  1.3745  0.3822  0.0595
 4732UDC    C1152052   5.806   6.059   5.787 -0.1379  0.6257  0.4735
 4733UDC     C152053   1.219   5.225  15.077 -1.0664 -0.8892  0.9980
 4733UDC     C252054   1.173   5.181  15.217  0.0780  1.8394  0.3482
 4733UDC     C352055   1.068   5.067  15.241  0.4460  0.9010  0.0582
 4733UDC     C452056   1.036   5.054  15.390 -0.5741 -0.6080 -0.2175
 4733UDC     C552057   0.887   5.057  15.423 -0.6886 -0.5655  1.4093
 4733UDC     C652058   0.858   5.075  15.573  0.2249  0.0769  0.7616
 4733UDC     C752059   0.722   5.148  15.606  0.8262  0.0105  0.3106
 4733UDC     C852060   0.721   5.200  15.755  1.0053 -0.6242 -0.1009
 4733UDC     C952061   0.593   5.295  15.781 -0.6784  0.8145  0.0942
 4733UDC    C1052062   0.627   5.445  15.741  0.8152  0.3789 -0.0879
 4733UDC    C1152063   0.513   5.543  15.711 -0.6836 -0.9788  0.5016
 4734UDC     C152064  11.860   4.580  15.189  0.4157 -0.8665  0.5779
 4734UDC     C252065  11.953   4.691  15.222 -0.3460  0.5427 -0.6646
 4734UDC     C352066  11.940   4.756  15.361  0.8027 -0.7711 -0.1674
 4734UDC     C452067  11.972   4.911  15.379 -0.3015 -0.8379 -0.4153
 4734UDC     C552068  11.935   4.965  15.521 -0.0589  0.0659  0.1362
 4734UDC     C652069  11.787   4.960  15.576  0.3955 -0.1743  1.1280
 4734UDC     C752070  11.735   5.096  15.623 -0.4773 -0.6935  0.9982
 4734UDC     C852071  11.584   5.090  15.665  0.0418 -0.7000 -0.1399
 4734UDC     C952072  11.492   5.079  15.547  0.3929 -0.0713 -0.2529
 4734UDC    C1052073  11.342   5.059  15.576 -1.3050 -0.4350 -0.9879
 4734UDC    C1152074  11.272   5.179  15.639 -0.3414 -1.5951 -0.2898
 4735UDC     C152075  12.178  13.437  14.962  0.1709  0.3833  0.7400
 4735UDC     C252076  12.179  13.307  14.874  0.8347 -0.6769  0.0629
 4735UDC     C352077  12.111  13.178  14.925 -0.3567 -1.2193 -0.3384
 4735UDC     C452078  11.975  13.133  14.874  0.2352  0.1974  0.5407
 4735UDC     C552079  11.919  13.013  14.960  0.6119 -0.7677  0.2273
 4735UDC     C652080  12.011  12.895  14.959 -0.1493  0.5417 -0.8796
 4735UDC     C752081  11.984  12.808  15.084 -0.3909  0.2323 -0.5869
 4735UDC     C852082  12.108  12.709  15.093  0.0211 -1.2369 -0.4251
 4735UDC     C952083  12.105  12.577  15.017  0.2215 -0.3991 -0.0003
 4735UDC    C1052084  12.202  12.465  15.071  0.1251  0.0540  0.4388
 4735UDC    C1152085  12.226  12.334  14.992 -0.0664 -0.5888 -0.3026
 4736UDC     C152086  11.719  11.847  14.853 -0.3782  0.0791 -0.1789
 4736UDC     C252087  11.854  11.915  14.887  1.0343  0.3241  0.3788
 4736UDC     C352088  11.865  11.970  15.029 -0.4731 -0.3994 -0.5629
 4736UDC     C452089  11.805  11.879  15.147  0.1174  0.3464 -0.4201
 4736UDC     C552090  11.807  11.927  15.300  0.0198 -0.2696 -0.0616
 4736UDC     C652091  11.933  11.862  15.364 -0.1920  0.1155 -0.3225
 4736UDC     C752092  11.964  11.932  15.496 -0.3584  1.1766  1.2677
 4736UDC     C852093  12.110  11.976  15.492 -0.6956 -0.0699 -0.5939
 4736UDC     C952094  12.184  11.996  15.627  0.1027  0.4656 -0.2670
 4736UDC    C1052095  12.323  12.047  15.610 -0.2937 -0.4216 -0.2425
 4736UDC    C1152096  12.305  12.187  15.540 -0.4959  1.0077  0.0544
 4737UDC     C152097   9.160   3.400   9.939 -0.4011 -0.4589  0.4786
 4737UDC     C252098   9.107   3.514  10.029 -0.9802 -0.9416  0.4868
 4737UDC     C352099   9.088   3.657   9.974  0.8637 -0.2661  0.2935
 4737UDC     C452100   9.026   3.761  10.077  0.1452  0.9920 -0.5903
 4737UDC     C552101   8.994   3.902  10.025 -0.4961  0.0708  0.7448
 4737UDC     C652102   8.988   4.027  10.116 -0.5640 -0.2783  0.4702
 4737UDC     C752103   8.848   4.097  10.080 -0.2758 -0.0803  0.2717
 4737UDC     C852104   8.821   4.121   9.927 -0.1735 -0.0098  0.2755
 4737UDC     C952105   8.700   4.206   9.883 -0.0814 -0.4820  0.9496
 4737UDC    C1052106   8.706   4.236   9.726  0.1030  0.3676 -0.7447
 4737UDC    C1152107   8.815   4.337   9.689 -0.1961 -0.6823 -0.3740
 4738UDC     C152108  16.219   8.154   3.623  0.3631 -1.0177  0.0051
 4738UDC     C252109  16.313   8.242   3.709 -1.5482 -0.6898 -0.3283
 4738UDC     C352110  16.359   8.377   3.647 -0.0240  0.1489  0.8897
 4738UDC     C452111  16.447   8.467   3.741  0.0261  0.4601 -0.5944
 4738UDC     C552112  16.515   8.569   3.643  0.4681  0.6655  0.6434
 4738UDC     C652113  16.591   8.695   3.706  1.5281 -0.0574 -0.3982
 4738UDC     C752114  16.636   8.798   3.598  0.0582  0.7302  0.2292
 4738UDC     C852115  16.752   8.753   3.502  0.6801 -0.3999 -0.2812
 4738UDC     C952116  16.876   8.686   3.568 -0.4174  0.4297  1.8630
 4738UDC    C1052117  16.985   8.754   3.646 -0.1019 -0.3264  0.2854
 4738UDC    C1152118  17.133   8.733   3.612  0.3678  0.5819 -0.0587
 4739UDC     C152119   1.911   0.966   9.294 -0.5612  0.4615 -1.0452
 4739UDC     C252120   1.909   1.008   9.145 -0.0714  0.1695  0.7113
 4739UDC     C352121   1.883   0.873   9.072  0.3853 -0.9195  0.1848
 4739UDC     C452122   1.858   0.883   8.919  0.6157  1.0380 -0.1992
 4739UDC     C552123   1.709   0.872   8.885 -0.1456 -0.5077 -0.1738
 4739UDC     C652124   1.692   0.906   8.738  0.3078 -0.1241  0.3496
 4739UDC     C752125   1.558   0.878   8.668 -0.0117  0.0672 -1.5489
 4739UDC     C852126   1.441   0.943   8.726  0.0114 -0.0609 -1.3224
 4739UDC     C952127   1.306   0.923   8.645 -0.4649  0.3561  0.7059
 4739UDC    C1052128   1.199   0.985   8.738  0.2928 -0.5191  0.0308
 4739UDC    C1152129   1.227   1.132   8.780  0.2585  0.2753  0.1448
 4740UDC     C152130  18.380  11.034  16.527 -0.3406  0.0684 -0.7324
 4740UDC     C252131  18.259  10.945  16.528  0.4490 -0.1572  0.1123
 4740UDC     C352132  18.274  10.786  16.515  0.5437 -0.5875 -0.1820
 4740UDC     C452133  18.163  10.739  16.424  0.2552  0.1969  0.6784
 4740UDC     C552134  18.126  10.592  16.437 -0.3555 -0.0428 -0.2382
 4740UDC     C652135  18.015  10.525  16.352  0.4740 -0.9334  0.1042
 4740UDC     C752136  17.996  10.369  16.380 -0.5121 -0.4241  0.4271
 4740UDC     C852137  17.894  10.307  16.282 -0.2362  0.3552 -0.5313
 4740UDC     C952138  17.937  10.190  16.180 -0.6169 -0.1238 -0.9841
 4740UDC    C1052139  17.821  10.152  16.094  0.3090  0.7886 -0.4439
 4740UDC    C1152140  17.830  10.036  16.003 -1.0816  0.3041 -0.8646
 4741UDC     C152141  18.605  13.524  13.826  1.1231 -0.0568  0.6396
 4741UDC     C252142  18.571  13.398  13.752 -0.1486  1.2901  0.0495
 4741UDC     C352143  18.643  13.359  13.627  0.5678 -0.2484  0.7779
 4741UDC     C452144  18.798  13.358  13.633 -0.1092 -0.6631  0.2817
 4741UDC     C552145  18.848  13.275  13.511 -0.4476 -0.3092  1.8780
 4741UDC     C652146  18.783  13.142  13.485 -0.4301  0.8510 -1.4734
 4741UDC     C752147  18.898  13.053  13.437  1.0323  0.6553 -0.0595
 4741UDC     C852148  18.843  12.951  13.327 -1.1362  0.0504 -0.1315
 4741UDC     C952149  18.812  13.006  13.183 -0.4639  0.0898 -0.3603
 4741UDC    C1052150  18.906  13.091  13.096  0.2465 -0.6025  1.3882
 4741UDC    C1152151  18.928  13.039  12.949 -0.1905 -0.3587  0.2688
 4742UDC     C152152   1.025  18.406   1.506 -0.5334  0.0571 -0.4826
 4742UDC     C252153   1.179  18.427   1.516 -0.6819 -0.1181 -0.1844
 4742UDC     C352154   1.223  18.566   1.555  0.6941 -0.5835 -0.8890
 4742UDC     C452155   1.358  18.617   1.506 -0.6354  0.0813  0.1215
 4742UDC     C552156   1.493  18.554   1.546  0.1152 -0.0924 -0.4461
 4742UDC     C652157   1.600  18.663   1.542 -0.5006  0.1146  0.0570
 4742UDC     C752158   1.665  18.730   1.671 -1.4195  0.6715 -0.3632
 4742UDC     C852159   1.581  18.850   1.722 -0.3574  0.0852 -0.3181
 4742UDC     C952160   1.648  18.986   1.696  1.5053  0.5952  0.1685
 4742UDC    C1052161   1.627  19.106   1.787 -0.6473 -0.2203  0.5531
 4742UDC    C1152162   1.739  19.096   1.893 -1.0142 -0.0020  0.3144
 4743UDC     C152163  15.004   4.040  10.687  0.1044  0.8476 -0.3427
 4743UDC     C252164  14.924   3.923  10.630 -0.6570 -0.1511  0.2824
 4743UDC     C352165  14.898   3.814  10.733 -0.8530 -1.2247  0.1889
 4743UDC     C452166  15.008   3.745  10.815  0.0743  1.5677 -0.0164
 4743UDC     C552167  14.989   3.775  10.967 -0.3050  0.9329  0.4841
 4743UDC     C652168  15.098   3.720  11.065 -0.2171 -0.0342 -0.3400
 4743UDC     C752169  15.239   3.790  11.043 -0.3977 -0.0148  0.6288
 4743UDC     C852170  15.348   3.800  11.150 -0.5014 -1.1008 -0.0012
 4743UDC     C952171  15.398   3.672  11.219 -0.3309  0.8048  0.2620
 4743UDC    C1052172  15.529   3.597  11.154  0.2769 -0.6532  0.0274
 4743UDC    C1152173  15.552   3.465  11.218  0.6422  1.0179  0.8699
 4744UDC     C152174   5.978  12.581  13.741 -0.6840 -1.0736 -0.4404
 4744UDC     C252175   5.842  12.568  13.659 -1.4146  0.2696  0.1892
 4744UDC     C352176   5.758  12.696  13.661 -0.3088  0.7737  0.5183
 4744UDC     C452177   5.618  12.690  13.597  0.5808 -0.0022 -0.5473
 4744UDC     C552178   5.574  12.730  13.454  0.0287 -0.6241  1.0532
 4744UDC     C652179   5.605  12.880  13.441  1.0137  0.2756  0.7488
 4744UDC     C752180   5.536  12.986  13.530 -0.0118  0.0688 -0.2522
 4744UDC     C852181   5.388  12.985  13.497  0.1806 -1.1252  0.0359
 4744UDC     C952182   5.294  13.076  13.580  0.3117  0.0067  1.0274
 4744UDC    C1052183   5.139  13.073  13.555  0.6529 -0.4560  0.8580
 4744UDC    C1152184   5.062  12.945  13.595 -0.7038 -0.0902 -0.0976
 4745UDC     C152185   2.693   9.895  14.241 -0.1684 -0.1177 -0.9015
 4745UDC     C252186   2.574   9.897  14.351  0.0019  0.4691 -0.1858
 4745UDC     C352187   2.460   9.988  14.314  0.1527  0.2230  0.6553
 4745UDC     C452188   2.312   9.962  14.364  0.2394  0.4128  0.3453
 4745UDC     C552189   2.210  10.070  14.333 -0.3387 -0.4794 -0.3770
 4745UDC     C652190   2.135  10.055  14.205 -0.1965  0.0403  1.3100
 4745UDC     C752191   2.008   9.968  14.215  0.7080 -0.1935  0.2257
 4745UDC     C852192   1.958   9.919  14.077 -1.0462 -0.1081 -0.0756
 4745UDC     C952193   1.833   9.830  14.094  0.6535 -1.0129  0.9368
 4745UDC    C1052194   1.696   9.882  14.146  0.0743  0.3564 -0.2152
 4745UDC    C1152195   1.585   9.774  14.147  1.3410  0.0855  0.3447
 4746UDC     C152196  14.806   1.112   5.457  0.2200  0.5137  0.3277
 4746UDC     C252197  14.819   1.231   5.557  0.9785 -0.2215 -1.2147
 4746UDC     C352198  14.734   1.206   5.682  0.5609  0.3485  0.5810
 4746UDC     C452199  14.770   1.290   5.807  0.3911  0.3981 -1.2167
 4746UDC     C552200  14.725   1.215   5.933  0.0442 -0.8866 -0.7441
 4746UDC     C652201  14.582   1.229   5.959  0.4091  0.3428  0.2208
 4746UDC     C752202  14.522   1.131   6.058 -0.0813 -0.6796 -0.3226
 4746UDC     C852203  14.372   1.099   6.064  0.0400  0.3106  1.7925
 4746UDC     C952204  14.289   1.210   6.126  0.5430  0.5063 -1.2107
 4746UDC    C1052205  14.136   1.202   6.127  1.4003  0.1898  0.2553
 4746UDC    C1152206  14.072   1.308   6.216  0.2527 -0.4539  1.1984
 4747UDC     C152207  18.620   8.242  14.239 -0.2469 -0.0403 -1.3873
 4747UDC     C252208  18.473   8.238  14.293 -0.1546 -0.3757  0.9829
 4747UDC     C352209  18.440   8.169  14.419 -0.2413  0.5708 -0.7120
 4747UDC     C452210  18.289   8.168  14.469 -0.1265  0.3028  1.0434
 4747UDC     C552211  18.221   8.038  14.414  0.3234  0.0460 -1.2303
 4747UDC     C652212  18.092   8.016  14.499  0.4576 -0.1350  1.3027
 4747UDC     C752213  17.987   7.940  14.413 -0.0247 -0.1219  0.4970
 4747UDC     C852214  18.008   7.804  14.341 -0.2745 -0.4612  0.0429
 4747UDC     C952215  17.920   7.772  14.225 -1.2458  0.8159  1.3211
 4747UDC    C1052216  17.922   7.616  14.203 -1.0266 -0.6024  0.8273
 4747UDC    C1152217  18.032   7.514  14.248  0.6045  0.0489 -0.4806
 4748UDC     C152218  12.108   9.126  13.111 -0.1271  0.3091  0.5964
 4748UDC     C252219  11.984   9.048  13.154  0.2133 -0.3452  0.5017
 4748UDC     C352220  11.905   8.966  13.044 -0.7768  0.0545 -0.2129
 4748UDC     C452221  11.980   8.831  13.007  1.1665 -0.0583 -0.6233
 4748UDC     C552222  11.877   8.788  12.900  0.4287 -0.3809  0.2774
 4748UDC     C652223  11.885   8.656  12.837  0.3276 -0.4351 -0.4661
 4748UDC     C752224  11.765   8.623  12.738  0.5172  0.2081  0.4618
 4748UDC     C852225  11.762   8.484  12.680 -0.2751  0.9671 -0.1504
 4748UDC     C952226  11.648   8.470  12.588  0.4639  0.9647  0.1740
 4748UDC    C1052227  11.505   8.404  12.632  0.2403  0.0286 -0.4105
 4748UDC    C1152228  11.399   8.438  12.531  0.0497 -0.1984  0.1150
 4749UDC     C152229   3.807  19.695  13.410  0.2626 -0.4380 -0.6449
 4749UDC     C252230   3.726  19.573  13.432  0.9312  0.6922  0.3250
 4749UDC     C352231   3.576  19.611  13.440  0.4649  0.4012  0.7045
 4749UDC     C452232   3.492  19.485  13.410 -0.5299 -0.0179  1.1946
 4749UDC     C552233   3.557  19.425  13.282 -0.3793  0.4968 -0.5775
 4749UDC     C652234   3.565  19.510  13.153  0.1458 -0.7958  0.9673
 4749UDC     C752235   3.434  19.513  13.076 -0.2213  0.8520 -0.7757
 4749UDC     C852236   3.465  19.590  12.949 -0.0025 -0.5840 -0.9934
 4749UDC     C952237   3.346  19.619  12.849 -0.4025 -0.5583 -0.8238
 4749UDC    C1052238   3.398  19.669  12.713  0.0129  0.9726 -0.9443
 4749UDC    C1152239   3.512  19.587  12.663  0.6328  0.3201 -0.8749
 4750UDC     C152240   3.776  12.321  12.813 -0.5453  0.4048  0.6080
 4750UDC     C252241   3.773  12.288  12.667 -0.2738  0.9779 -0.4469
 4750UDC     C352242   3.727  12.144  12.634  0.4920  0.5975 -0.0521
 4750UDC     C452243   3.716  12.112  12.487  0.5367  0.1118 -0.7803
 4750UDC     C552244   3.694  11.957  12.482  0.9861  0.6553  0.0214
 4750UDC     C652245   3.820  11.866  12.489  0.3958 -0.1697  0.0206
 4750UDC     C752246   3.948  11.933  12.425  0.2102 -0.1019 -0.2417
 4750UDC     C852247   4.068  11.840  12.402  0.5957 -0.3999  0.1095
 4750UDC     C952248   4.106  11.823  12.253  0.5009 -0.6938  0.0475
 4750UDC    C1052249   3.980  11.782  12.170 -0.0407  0.5141 -0.9686
 4750UDC    C1152250   4.026  11.716  12.036  0.4578 -0.0319 -0.4948
 4751UDC     C152251  17.289  18.106  19.501  0.4468 -0.5271 -0.2380
 4751UDC     C252252  17.176  18.067  19.597  0.4943  1.0181 -0.1898
 4751UDC     C352253  17.220  17.973  19.709  0.0899  1.1519 -0.4402
 4751UDC     C452254  17.209  17.820  19.683  0.5564  0.0098 -0.8156
 4751UDC     C552255  17.068  17.778  19.642  0.6472  0.7257  0.4539
 4751UDC     C652256  16.966  17.805  19.752  0.7509  0.5825 -1.0894
 4751UDC     C752257  16.833  17.724  19.742  1.1139 -1.4226  0.1329
 4751UDC     C852258  16.870  17.576  19.720 -0.1691 -0.1494  0.1339
 4751UDC     C952259  16.761  17.474  19.762  1.0720 -0.7843  0.5021
 4751UDC    C1052260  16.712  17.486  19.907 -0.0396 -0.1833  0.8566
 4751UDC    C1152261  16.603  17.382  19.939  0.1447  0.4230  0.1156
 4752UDC     C152262   6.701  10.132   2.155  0.4394  0.3150 -1.0435
 4752UDC     C252263   6.837  10.111   2.214 -0.1210 -0.4271  0.2016
 4752UDC     C352264   6.931  10.197   2.132 -0.1660 -0.2256 -0.1746
 4752UDC     C452265   6.921  10.159   1.987  0.0420 -0.5849 -0.1272
 4752UDC     C552266   6.951  10.014   1.959 -0.5426  0.7581  0.1934
 4752UDC     C652267   7.107   9.995   1.980  0.5300 -0.2833  0.5849
 4752UDC     C752268   7.215  10.035   1.881  0.3825  0.3400 -0.4862
 4752UDC     C852269   7.353  10.045   1.942 -0.3081  0.1892  0.9544
 4752UDC     C952270   7.461  10.093   1.840  1.0964 -0.9078  0.0689
 4752UDC    C1052271   7.520   9.988   1.761 -0.2896  0.3626  0.3289
 4752UDC    C1152272   7.625  10.036   1.651  0.1044 -0.1621  0.1263
 4753UDC     C152273   2.521   7.200   7.879 -0.3607 -0.2213  0.1950
 4753UDC     C252274   2.442   7.141   7.766  0.6294  0.2235 -0.2695
 4753UDC     C352275   2.403   6.995   7.806 -0.5538 -0.3881  0.5084
 4753UDC     C452276   2.340   7.002   7.945  0.0189 -0.0100 -0.7947
 4753UDC     C552277   2.280   6.885   8.023 -0.8586 -1.1376 -0.3331
 4753UDC     C652278   2.410   6.844   8.104 -0.6562 -0.2985 -0.1336
 4753UDC     C752279   2.507   6.743   8.041 -0.0721  0.1302  0.0296
 4753UDC     C852280   2.448   6.605   8.063  0.8844  0.2953  0.2203
 4753UDC     C952281   2.497   6.502   7.955  0.4625 -0.2169 -1.0195
 4753UDC    C1052282   2.387   6.393   7.924  0.5751 -0.7053  0.0367
 4753UDC    C1152283   2.477   6.273   7.892  0.8525  0.0501 -0.4758
 4754UDC     C152284   0.592  16.369   7.689 -0.4419  0.1699 -0.1967
 4754UDC     C252285   0.549  16.241   7.618  0.1599 -0.1164 -0.2775
 4754UDC     C352286   0.421  16.262   7.546  0.0795  0.2977  1.0137
 4754UDC     C452287   0.379  16.147   7.445 -0.1549  0.8306  0.1811
 4754UDC     C552288   0.237  16.172   7.390 -0.5172 -0.1502  0.1556
 4754UDC     C652289   0.224  16.293   7.297  0.2390  0.6641 -0.5162
 4754UDC     C752290   0.086  16.325   7.249  0.2958  0.7541 -0.4095
 4754UDC     C852291   0.020  16.235   7.148  0.0414 -1.0824  0.0188
 4754UDC     C952292   0.053  16.244   6.994  0.2844 -0.3884 -1.0040
 4754UDC    C1052293  -0.028  16.138   6.914  0.3360  1.7435 -0.4692
 4754UDC    C1152294  -0.163  16.186   6.878  0.4276 -0.8491 -1.4558
 4755UDC     C152295  18.444  12.515   3.143  0.0227  0.9563  0.8834
 4755UDC     C252296  18.422  12.652   3.076 -0.1771 -0.1443  0.3406
 4755UDC     C352297  18.548  12.683   2.975 -0.0201 -0.2966 -0.6460
 4755UDC     C452298  18.516  12.799   2.881  0.4409  0.7554 -0.2318
 4755UDC     C552299  18.393  12.804   2.791 -0.2617 -0.6469  0.5151
 4755UDC     C652300  18.433  12.896   2.674  0.6403 -0.5105 -0.9212
 4755UDC     C752301  18.404  12.850   2.530  0.0226 -0.1430  0.4351
 4755UDC     C852302  18.449  12.948   2.419  0.0723 -0.0004 -0.2541
 4755UDC     C952303  18.575  12.892   2.366 -0.0774  0.5499  0.1569
 4755UDC    C1052304  18.624  12.983   2.251 -0.3683  0.2893 -0.4520
 4755UDC    C1152305  18.738  12.919   2.168  0.1297  1.0437 -0.2974
 4756UDC     C152306  12.123  16.302   4.600 -0.6205 -0.1996 -0.0125
 4756UDC     C252307  12.030  16.339   4.720 -0.7637  1.4868 -0.4728
 4756UDC     C352308  11.993  16.488   4.734 -0.1062  0.1505 -0.7317
 4756UDC     C452309  11.921  16.549   4.615 -0.6030  0.4950 -0.1758
 4756UDC     C552310  11.912  16.708   4.621 -0.3411 -0.2726  0.4139
 4756UDC     C652311  12.044  16.790   4.608  0.0310 -0.6382 -0.4777
 4756UDC     C752312  12.112  16.807   4.743 -1.1288  0.8738 -0.5852
 4756UDC     C852313  12.210  16.924   4.727 -0.1432 -0.2407 -0.6234
 4756UDC     C952314  12.315  16.929   4.612  0.5700  0.3942 -1.0583
 4756UDC    C1052315  12.452  16.908   4.689  0.2049  0.3017  0.0793
 4756UDC    C1152316  12.572  16.872   4.601  0.4791 -0.6114  0.1629
 4757UDC     C152317   9.007  14.742  16.674 -0.3101  0.2214  0.6587
 4757UDC     C252318   8.895  14.647  16.730 -0.5048 -0.6028  0.9382
 4757UDC     C352319   8.927  14.508  16.678  0.9025  0.5158  0.5510
 4757UDC     C452320   8.832  14.389  16.714  0.6156  0.6257 -0.1448
 4757UDC     C552321   8.869  14.254  16.646  0.7168  0.5326  0.7663
 4757UDC     C652322   8.751  14.153  16.646 -1.6658 -0.7572 -0.4076
 4757UDC     C752323   8.638  14.200  16.567 -0.0640 -0.6245  0.0744
 4757UDC     C852324   8.519  14.112  16.537 -0.1263 -0.7711 -0.1289
 4757UDC     C952325   8.548  13.969  16.482  0.6517 -0.8743  1.1828
 4757UDC    C1052326   8.457  13.892  16.377  0.2366  1.0128 -0.4408
 4757UDC    C1152327   8.379  13.784  16.443  0.6019  1.0256 -0.2296
 4758UDC     C152328   3.539   6.037   9.807  0.6463 -0.2072 -0.2592
 4758UDC     C252329   3.551   6.163   9.897  0.7131  0.4636 -0.0034
 4758UDC     C352330   3.473   6.150  10.032 -0.9571 -0.0184 -1.5079
 4758UDC     C452331   3.522   6.258  10.131  0.6744  0.9917  0.7817
 4758UDC     C552332   3.490   6.239  10.278 -0.5856  0.5123 -0.8605
 4758UDC     C652333   3.486   6.088  10.305 -0.5764  0.4237  0.3288
 4758UDC     C752334   3.543   6.037  10.443 -0.0629  0.8596  1.2531
 4758UDC     C852335   3.513   5.882  10.457  0.3252 -0.3121 -0.3034
 4758UDC     C952336   3.626   5.803  10.514 -1.4481  0.1272  0.2126
 4758UDC    C1052337   3.696   5.861  10.638  0.3533  0.3887 -0.2460
 4758UDC    C1152338   3.732   5.739  10.726 -0.1580  0.1816 -0.8612
 4759UDC     C152339  15.274  19.850   4.789  0.1764  0.1315 -0.2691
 4759UDC     C252340  15.315  19.780   4.918 -0.2724 -0.4009  0.6980
 4759UDC     C352341  15.418  19.857   4.992  0.7793 -1.0799 -1.0579
 4759UDC     C452342  15.419  19.813   5.141  0.1019 -0.4895 -0.0398
 4759UDC     C552343  15.479  19.920   5.240 -0.1641 -0.2688 -0.6683
 4759UDC     C652344  15.491  19.860   5.387 -0.7178 -0.2870  1.1190
 4759UDC     C752345  15.604  19.751   5.394 -0.3808  0.2760 -0.5139
 4759UDC     C852346  15.584  19.680   5.528  0.7752  0.2947  0.5422
 4759UDC     C952347  15.642  19.539   5.532  0.2632  0.2524 -0.4522
 4759UDC    C1052348  15.621  19.478   5.673  0.2834  0.1881  0.0013
 4759UDC    C1152349  15.642  19.324   5.679  0.0538 -0.9581 -0.3531
 4760UDC     C152350  15.160   6.607   8.299  0.2603 -0.2759 -0.1303
 4760UDC     C252351  15.294   6.642   8.231  0.0120 -1.0856 -0.2117
 4760UDC     C352352  15.286   6.717   8.095  0.3802  0.2004  0.0797
 4760UDC     C452353  15.274   6.617   7.975  1.0610 -0.2881 -0.5254
 4760UDC     C552354  15.258   6.704   7.846 -0.3008 -0.1273  0.5956
 4760UDC     C652355  15.246   6.613   7.719 -0.9305 -0.7070 -0.2146
 4760UDC     C752356  15.159   6.683   7.617 -0.1009 -0.0444 -0.1294
 4760UDC     C852357  15.230   6.817   7.595 -0.4397 -0.6458  0.3903
 4760UDC     C952358  15.146   6.904   7.509  0.1599 -0.1591 -0.4680
 4760UDC    C1052359  15.140   6.861   7.359  1.0004 -0.3329  0.5038
 4760UDC    C1152360  15.253   6.906   7.265  0.0858  0.1293  0.6376
 4761UDC     C152361   4.789   4.656  18.403 -0.4088 -1.0513  0.3281
 4761UDC     C252362   4.921   4.664  18.485 -0.2817 -0.1298  0.7389
 4761UDC     C352363   4.991   4.805  18.479 -0.6223 -0.3580 -0.5785
 4761UDC     C452364   4.899   4.917  18.530  0.2679  0.8536 -0.1936
 4761UDC     C552365   4.966   5.058  18.538 -0.5303  0.2685 -0.3161
 4761UDC     C652366   4.975   5.139  18.410  0.4275  0.0572 -0.3060
 4761UDC     C752367   5.001   5.281  18.464  0.8111  0.1873  0.2152
 4761UDC     C852368   5.141   5.330  18.509 -1.8404  1.6409  0.6689
 4761UDC     C952369   5.154   5.476  18.534 -1.0344  0.6883 -0.9924
 4761UDC    C1052370   5.278   5.536  18.604 -0.1531 -1.0296 -1.1043
 4761UDC    C1152371   5.295   5.422  18.708  0.2794  0.4092 -0.2856
 4762UDC     C152372   7.050   5.554   8.903 -0.1509 -0.7705  0.5133
 4762UDC     C252373   7.124   5.572   8.773 -0.6637  0.6330  0.7993
 4762UDC     C352374   7.239   5.667   8.787 -0.4943 -0.1571 -1.2835
 4762UDC     C452375   7.340   5.650   8.910 -0.5985 -0.7776  0.0397
 4762UDC     C552376   7.424   5.779   8.914 -0.2654 -0.5158 -0.2675
 4762UDC     C652377   7.337   5.903   8.944 -0.5154 -0.4006 -0.0825
 4762UDC     C752378   7.397   6.040   8.897  0.6488 -0.4518  0.1536
 4762UDC     C852379   7.281   6.136   8.915  0.7412 -1.0570 -0.0827
 4762UDC     C952380   7.256   6.203   9.058  0.0734  0.2152 -0.3536
 4762UDC    C1052381   7.141   6.307   9.066 -0.3952 -0.7007 -0.3830
 4762UDC    C1152382   7.158   6.389   9.199  0.0863  0.3423 -0.5560
 4763UDC     C152383   2.146  13.817   7.381 -0.1282  0.3368 -0.4500
 4763UDC     C252384   2.180  13.869   7.240  1.0142 -0.1592 -0.1084
 4763UDC     C352385   2.311  13.938   7.256 -0.3665 -0.8932  1.0753
 4763UDC     C452386   2.396  13.976   7.137  0.1432  0.4488 -0.3870
 4763UDC     C552387   2.539  14.024   7.161 -0.0726  1.2103  0.4052
 4763UDC     C652388   2.549  14.123   7.271 -0.6873 -0.5198  0.1557
 4763UDC     C752389   2.511  14.264   7.231 -0.0639 -0.1722 -0.1635
 4763UDC     C852390   2.619  14.351   7.172 -0.0396 -0.5245  0.1327
 4763UDC     C952391   2.706  14.435   7.258  0.1114 -0.9041 -0.2535
 4763UDC    C1052392   2.825  14.514   7.193  0.4960 -0.2374  0.4838
 4763UDC    C1152393   2.969  14.478   7.242  0.5413 -0.3737 -1.2048
 4764UDC     C152394  18.813  16.943  16.297  0.2532 -0.5686  0.0084
 4764UDC     C252395  18.739  17.049  16.218 -0.9609 -0.6234 -0.7471
 4764UDC     C352396  18.718  17.198  16.266  0.3126 -0.0039  1.1073
 4764UDC     C452397  18.848  17.273  16.301 -0.7202 -0.1195  0.1892
 4764UDC     C552398  18.949  17.295  16.185 -0.5294  0.2337  0.0615
 4764UDC     C652399  19.081  17.348  16.232 -0.1198 -0.7199  0.2520
 4764UDC     C752400  19.202  17.262  16.198 -0.3256 -0.7771 -1.1394
 4764UDC     C852401  19.330  17.348  16.197  0.5752  0.9310  0.6129
 4764UDC     C952402  19.457  17.271  16.147 -0.3703 -0.5771 -0.2023
 4764UDC    C1052403  19.568  17.350  16.080 -0.1994  0.4774 -0.7422
 4764UDC    C1152404  19.624  17.472  16.155  0.2545  0.1847 -0.2563
 4765UDC     C152405   9.451   8.397  12.244  0.2761 -0.2345  0.3323
 4765UDC     C252406   9.503   8.257  12.283  0.0209  0.5094  0.3142
 4765UDC     C352407   9.402   8.137  12.252  0.0303 -0.3224 -0.8612
 4765UDC     C452408   9.438   8.008  12.331 -0.9588  0.0332  0.2005
 4765UDC     C552409   9.366   7.996  12.465  0.3118 -0.7468  0.4756
 4765UDC     C652410   9.449   7.990  12.600 -0.4565  0.2639  0.5764
 4765UDC     C752411   9.536   8.113  12.614  1.0277  0.4267 -1.5679
 4765UDC     C852412   9.468   8.242  12.669  0.4358  0.4679 -0.2451
 4765UDC     C952413   9.555   8.363  12.717  0.6057  1.1093  0.0351
 4765UDC    C1052414   9.649   8.353  12.835  0.2168  1.2527 -1.5036
 4765UDC    C1152415   9.777   8.270  12.802 -0.1063  0.8861 -0.7148
 4766UDC     C152416  17.024  18.992  11.244  0.0633  0.6963 -0.1213
 4766UDC     C252417  16.986  19.102  11.135 -0.5261  0.5208 -0.7193
 4766UDC     C352418  16.835  19.144  11.135 -0.6768 -0.8023 -0.3748
 4766UDC     C452419  16.834  19.268  11.047 -0.0599 -0.7201  1.0019
 4766UDC     C552420  16.697  19.339  11.026 -0.2674 -0.6640  0.9583
 4766UDC     C652421  16.688  19.478  10.963 -1.0316  0.1517  0.7193
 4766UDC     C752422  16.810  19.570  10.996  1.1867 -1.0031 -0.0962
 4766UDC     C852423  16.915  19.632  10.890  0.1609 -0.4751  0.2380
 4766UDC     C952424  16.971  19.525  10.797  0.9475 -0.2613  0.0402
 4766UDC    C1052425  17.123  19.520  10.794 -0.7340 -0.4060  0.9191
 4766UDC    C1152426  17.191  19.382  10.807 -0.5824 -0.1809 -0.2567
 4767UDC     C152427  10.666  13.239  12.611  0.2768 -0.3247  0.2619
 4767UDC     C252428  10.536  13.268  12.526  0.4257  0.5389 -0.4466
 4767UDC     C352429  10.456  13.393  12.580  0.2585  0.9898  0.7407
 4767UDC     C452430  10.329  13.420  12.493  0.2901  1.1819  0.1809
 4767UDC     C552431  10.219  13.304  12.492 -0.5852 -0.7056  0.2449
 4767UDC     C652432  10.094  13.330  12.407 -0.2931  0.2040 -0.0099
 4767UDC     C752433  10.027  13.187  12.392  0.2030 -0.1486 -0.5911
 4767UDC     C852434  10.006  13.130  12.249  0.7070 -0.2487  0.9276
 4767UDC     C952435   9.920  13.003  12.239  0.0914  0.0901 -0.7390
 4767UDC    C1052436   9.871  12.963  12.097 -0.0412 -0.2817  0.6315
 4767UDC    C1152437   9.976  12.876  12.035 -0.5627  0.2941  0.4610
 4768UDC     C152438  16.734  11.213   8.852 -0.0528  0.3012 -0.1899
 4768UDC     C252439  16.771  11.268   8.711  1.0183  1.2257 -1.4592
 4768UDC     C352440  16.911  11.323   8.703  0.0310  0.2538 -0.2475
 4768UDC     C452441  16.908  11.381   8.570 -0.4675 -0.0235 -0.6987
 4768UDC     C552442  16.990  11.324   8.452 -0.7011  1.2666  0.4543
 4768UDC     C652443  16.960  11.174   8.428 -0.7437 -0.0716 -0.0467
 4768UDC     C752444  16.840  11.144   8.335  0.3205 -0.5059 -0.6153
 4768UDC     C852445  16.825  10.988   8.334  0.2592 -0.7956  0.1682
 4768UDC     C952446  16.723  10.912   8.247 -0.2982  0.0651  0.7381
 4768UDC    C1052447  16.753  10.764   8.214 -0.4395 -0.2482 -1.0593
 4768UDC    C1152448  16.869  10.722   8.312  0.5174 -0.3822  0.3677
 4769UDC     C152449   4.542  11.352   3.280  0.6163 -0.3746 -0.5198
 4769UDC     C252450   4.469  11.223   3.326  0.2159 -1.1522  0.2920
 4769UDC     C352451   4.333  11.257   3.404 -0.1207 -0.5654  0.5358
 4769UDC     C452452   4.330  11.323   3.542  0.3298 -1.1588  1.0874
 4769UDC     C552453   4.404  11.259   3.656  0.4890  0.0308 -0.1471
 4769UDC     C652454   4.378  11.113   3.683  1.0808  0.1869  0.6641
 4769UDC     C752455   4.455  11.064   3.807  0.0374  1.0636 -0.2912
 4769UDC     C852456   4.405  10.931   3.866  0.1180  0.6826  0.3676
 4769UDC     C952457   4.481  10.881   3.987  0.2687  0.2612 -0.4958
 4769UDC    C1052458   4.461  10.728   4.021  0.4381 -0.3766  0.8667
 4769UDC    C1152459   4.550  10.683   4.139 -0.3381 -0.8687 -0.1549
 4770UDC     C152460   8.613   4.663  18.367  0.5472 -0.3964  0.7937
 4770UDC     C252461   8.735   4.685  18.464 -0.9992 -0.1922 -0.5740
 4770UDC     C352462   8.860   4.743  18.400 -0.3133 -0.2675  0.8115
 4770UDC     C452463   8.942   4.834  18.502  0.9586 -0.7301  0.2514
 4770UDC     C552464   9.069   4.917  18.465  0.0786  0.2612  1.0494
 4770UDC     C652465   9.026   5.043  18.408  0.1359 -0.2926 -0.2629
 4770UDC     C752466   9.076   5.054  18.269 -1.4996 -0.0545  0.0269
 4770UDC     C852467   9.225   5.090  18.242  0.5405  0.2585 -0.5846
 4770UDC     C952468   9.202   5.227  18.310 -0.4093 -0.2072  0.2020
 4770UDC    C1052469   9.339   5.308  18.308  1.0688  1.0315 -1.2296
 4770UDC    C1152470   9.316   5.457  18.305 -0.6150 -0.3278 -0.0029
 4771UDC     C152471  19.234   3.505  13.678  0.3702  0.4972  0.7642
 4771UDC     C252472  19.102   3.567  13.724 -0.1097  1.0469 -0.0089
 4771UDC     C352473  19.059   3.464  13.839  0.7515  0.4684  0.1185
 4771UDC     C452474  19.023   3.320  13.798  1.3052  0.2222 -0.2595
 4771UDC     C552475  18.978   3.240  13.925 -0.4105 -0.6029  0.7226
 4771UDC     C652476  18.967   3.089  13.895  0.1136 -1.2051 -1.6921
 4771UDC     C752477  18.973   2.998  14.021 -0.7210 -0.7036 -0.0117
 4771UDC     C852478  18.878   3.046  14.122 -0.4094 -1.0265  0.5471
 4771UDC     C952479  18.845   2.947  14.227  0.2282 -0.7827  0.2779
 4771UDC    C1052480  18.768   2.997  14.350 -1.4323 -1.7052 -0.7380
 4771UDC    C1152481  18.818   3.128  14.416  0.3306 -0.4165 -0.2810
 4772UDC     C152482   9.145  13.604   6.789 -0.1765  0.3202 -0.0852
 4772UDC     C252483   9.124  13.459   6.824  0.8244 -0.8799  0.0532
 4772UDC     C352484   9.226  13.355   6.754 -0.0777 -0.1971 -0.0075
 4772UDC     C452485   9.214  13.205   6.768  0.0190 -1.0362 -0.5106
 4772UDC     C552486   9.092  13.169   6.692  0.9317 -0.9159  0.2098
 4772UDC     C652487   9.124  13.204   6.543  0.5671  0.6163 -0.9032
 4772UDC     C752488   8.995  13.196   6.448  0.0216 -0.3631  0.8496
 4772UDC     C852489   8.871  13.272   6.491 -0.6017  0.5609 -0.9410
 4772UDC     C952490   8.744  13.261   6.404  0.6332  0.4747  0.4920
 4772UDC    C1052491   8.723  13.393   6.322  1.0501 -0.7183  0.7410
 4772UDC    C1152492   8.684  13.520   6.409  1.1180 -0.7627 -0.1144
 4773UDC     C152493  13.186  18.806   9.543  0.3895 -0.5957  0.0828
 4773UDC     C252494  13.325  18.842   9.597 -0.0125 -0.5023  0.2822
 4773UDC     C352495  13.397  18.945   9.518  0.4712 -0.7608 -0.7832
 4773UDC     C452496  13.528  18.990   9.586 -0.3162  0.6380  0.7379
 4773UDC     C552497  13.596  19.094   9.496  0.4841  0.1321 -0.7434
 4773UDC     C652498  13.567  19.250   9.500  0.1002  0.1604 -0.4104
 4773UDC     C752499  13.664  19.332   9.414 -0.3272 -0.0943  0.3267
 4773UDC     C852500  13.812  19.330   9.456  0.2176 -0.4328 -0.1770
 4773UDC     C952501  13.925  19.324   9.350 -0.6873 -0.2779  0.8506
 4773UDC    C1052502  14.066  19.304   9.410 -0.5340  0.0459  1.1389
 4773UDC    C1152503  14.173  19.297   9.297  0.0270 -0.5788 -0.7204
 4774UDC     C152504  19.365  18.677  14.945  0.7626  0.8608  0.5549
 4774UDC     C252505  19.224  18.660  14.986 -0.4710 -0.1569 -0.4994
 4774UDC     C352506  19.122  18.728  14.891  0.6767  0.1924  0.1386
 4774UDC     C452507  19.118  18.886  14.900  0.1837  0.9529  0.8363
 4774UDC     C552508  19.031  18.946  14.790  0.5883  0.3637 -0.0041
 4774UDC     C652509  19.107  19.061  14.715  0.1939  0.0228 -0.5968
 4774UDC     C752510  19.051  19.121  14.589 -0.1278 -0.1734  0.8454
 4774UDC     C852511  19.149  19.188  14.489 -0.0183 -0.5250  0.0613
 4774UDC     C952512  19.089  19.180  14.340  0.5350 -0.0535 -0.9149
 4774UDC    C1052513  18.960  19.257  14.320  0.7591 -0.5467 -0.8801
 4774UDC    C1152514  18.984  19.411  14.315  0.6411  0.2233  0.2081
 4775UDC     C152515   9.330   7.420  17.716 -0.4243 -0.6527  0.1994
 4775UDC     C252516   9.465   7.456  17.774  0.6473 -0.4576  0.4671
 4775UDC     C352517   9.562   7.532  17.691 -0.1253 -0.1976 -0.0011
 4775UDC     C452518   9.709   7.504  17.734 -0.6045  0.0937 -0.6356
 4775UDC     C552519   9.831   7.552  17.639  0.0434  0.1213 -1.1256
 4775UDC     C652520   9.970   7.508  17.689  1.4326  0.4992  0.4664
 4775UDC     C752521  10.079   7.504  17.582 -0.3463 -0.1511  0.6790
 4775UDC     C852522  10.064   7.378  17.490 -0.1791  0.3621  0.2853
 4775UDC     C952523  10.073   7.229  17.548 -0.4022  0.3549 -0.0891
 4775UDC    C1052524  10.095   7.110  17.452  0.7571  0.1803  0.1302
 4775UDC    C1152525  10.047   7.145  17.306  0.6911  0.1227  0.2682
 4776UDC     C152526   0.409  10.630   5.224  0.0087 -0.7139  0.0390
 4776UDC     C252527   0.508  10.609   5.103  0.4494 -0.1585  0.2083
 4776UDC     C352528   0.474  10.714   4.996 -0.3992 -0.1391  0.1751
 4776UDC     C452529   0.548  10.705   4.857  0.3503 -0.3054  0.4765
 4776UDC     C552530   0.526  10.573   4.778  0.4117  1.3367 -0.5161
 4776UDC     C652531   0.542  10.584   4.629 -0.2791 -0.1838  0.2664
 4776UDC     C752532   0.419  10.654   4.575  0.4857  0.5156 -0.4910
 4776UDC     C852533   0.402  10.807   4.607  1.0340 -0.2339  0.7708
 4776UDC     C952534   0.482  10.898   4.515  0.9488 -0.7505  0.2198
 4776UDC    C1052535   0.431  11.047   4.497 -0.5256  0.2664 -0.1049
 4776UDC    C1152536   0.275  11.037   4.480  1.0733 -1.4064 -0.3366
 4777UDC     C152537   7.486  13.078   6.226 -0.5567 -0.2844 -0.0831
 4777UDC     C252538   7.497  12.930   6.199  0.0587  0.1306 -0.8752
 4777UDC     C352539   7.424  12.865   6.315 -0.0432  0.0999  0.5415
 4777UDC     C452540   7.453  12.711   6.343  1.0911 -0.3250 -1.1115
 4777UDC     C552541   7.590  12.660   6.395 -1.0058 -0.8232  0.1035
 4777UDC     C652542   7.588  12.553   6.508  0.2106 -0.1914  0.7788
 4777UDC     C752543   7.721  12.477   6.496 -0.0664 -0.6005  0.0662
 4777UDC     C852544   7.795  12.466   6.631  0.5133  1.1871 -0.5164
 4777UDC     C952545   7.923  12.379   6.624 -0.5412  0.2909 -1.2178
 4777UDC    C1052546   7.908  12.235   6.565 -0.2200 -0.0268 -0.4997
 4777UDC    C1152547   7.935  12.112   6.667 -0.4313 -0.9002  0.0285
 4778UDC     C152548  12.397  10.959   5.365  0.0504  0.6740 -1.0079
 4778UDC     C252549  12.447  11.103   5.346  0.5903 -0.4469  0.8588
 4778UDC     C352550  12.538  11.148   5.226 -0.0878  0.3389  0.3364
 4778UDC     C452551  12.545  11.308   5.213 -0.0006  0.8073 -0.1034
 4778UDC     C552552  12.654  11.366   5.130 -0.3244  0.1995  0.8016
 4778UDC     C652553  12.806  11.311   5.143  0.5814 -0.5134 -0.0832
 4778UDC     C752554  12.846  11.365   5.287 -0.0738  0.0434 -0.3783
 4778UDC     C852555  12.978  11.330   5.355 -0.7207 -0.3964 -0.6250
 4778UDC     C952556  13.112  11.384   5.305  0.7357  0.6613  0.4953
 4778UDC    C1052557  13.206  11.304   5.210  0.0026 -0.7787  0.1180
 4778UDC    C1152558  13.173  11.322   5.060  0.2474 -0.0360 -0.0882
 4779UDC     C152559   2.962  14.751   5.633 -0.5787  0.2435 -0.4924
 4779UDC     C252560   2.963  14.725   5.490 -0.2131 -0.9533 -0.6682
 4779UDC     C352561   3.069  14.626   5.444  0.1539  0.5104 -0.5756
 4779UDC     C452562   3.011  14.574   5.307 -0.4743  0.2082 -0.0471
 4779UDC     C552563   3.049  14.427   5.282  0.5936  1.2249  0.2828
 4779UDC     C652564   2.986  14.336   5.169  0.1310 -0.9422  0.2774
 4779UDC     C752565   2.836  14.361   5.141 -0.2565 -0.5159 -0.1132
 4779UDC     C852566   2.802  14.449   5.013  0.2363  0.8128  0.1420
 4779UDC     C952567   2.903  14.399   4.910 -0.5224 -0.5962 -0.8269
 4779UDC    C1052568   2.856  14.391   4.760  0.4354 -0.2436  0.6782
 4779UDC    C1152569   2.767  14.267   4.741 -1.0050  0.3809 -0.6105
 4780UDC     C152570   7.107   1.561   7.077  0.1183 -0.1252  0.7917
 4780UDC     C252571   7.118   1.427   7.009 -0.5015 -0.7953 -0.3831
 4780UDC     C352572   7.211   1.447   6.884  0.4799 -0.3864 -0.4124
 4780UDC     C452573   7.225   1.318   6.787  0.0052 -0.9423  0.4158
 4780UDC     C552574   7.331   1.342   6.682 -0.0462  0.2564 -0.5093
 4780UDC     C652575   7.376   1.491   6.683 -0.6904 -0.3133  0.6823
 4780UDC     C752576   7.535   1.509   6.661  0.7591 -0.4413  0.6560
 4780UDC     C852577   7.633   1.442   6.763  0.8623 -0.5082  1.2337
 4780UDC     C952578   7.782   1.436   6.711  0.3157  1.2205 -0.3198
 4780UDC    C1052579   7.852   1.315   6.786  0.1878 -0.1151  0.4241
 4780UDC    C1152580   7.797   1.171   6.765  0.3774 -0.2099 -0.4827
 4781UDC     C152581   4.606  12.941  13.805  0.3329  0.4676  0.8642
 4781UDC     C252582   4.628  13.036  13.684  0.3774  0.6678  0.1873
 4781UDC     C352583   4.548  12.979  13.564 -0.0580  0.1132 -0.9409
 4781UDC     C452584   4.499  13.080  13.463  0.2919  1.5572 -0.6667
 4781UDC     C552585   4.609  13.120  13.363  0.6056 -0.2475 -0.4149
 4781UDC     C652586   4.608  13.003  13.263  0.7645 -0.3132  0.9525
 4781UDC     C752587   4.572  13.050  13.119  0.7947  0.3267  0.1124
 4781UDC     C852588   4.678  12.997  13.020  0.0673 -0.7182  0.0284
 4781UDC     C952589   4.635  12.983  12.872  1.2175 -0.3832 -0.9728
 4781UDC    C1052590   4.579  12.845  12.826 -0.1031 -0.8119  0.7171
 4781UDC    C1152591   4.610  12.743  12.935  1.1168 -0.0474  0.5193
 4782UDC     C152592  14.371   6.689  17.440 -0.0238 -0.9219 -0.3842
 4782UDC     C252593  14.432   6.841  17.423  1.1685  0.6862 -1.0423
 4782UDC     C352594  14.374   6.946  17.512  0.3846 -0.2037 -0.7483
 4782UDC     C452595  14.395   7.084  17.449  0.1676  0.6121 -0.9114
 4782UDC     C552596  14.341   7.211  17.512  0.2736 -0.0881  0.7745
 4782UDC     C652597  14.280   7.311  17.418 -0.1855  0.4030 -1.0537
 4782UDC     C752598  14.210   7.415  17.495 -1.0414  0.0609 -1.1548
 4782UDC     C852599  14.180   7.543  17.418 -0.8526 -0.7142  0.3188
 4782UDC     C952600  14.194   7.502  17.265  0.5951 -0.8069 -0.3438
 4782UDC    C1052601  14.165   7.607  17.149  0.6600  1.5977 -1.7441
 4782UDC    C1152602  14.117   7.528  17.029 -0.0376  0.6484  0.8664
 4783UDC     C152603  10.045  16.740  10.803  0.7730 -0.3839 -0.1996
 4783UDC     C252604   9.907  16.783  10.847 -0.6065 -0.0450  0.1393
 4783UDC     C352605   9.819  16.680  10.921  0.0560  0.2214 -1.1584
 4783UDC     C452606   9.873  16.625  11.054 -0.3008  0.4723 -0.1022
 4783UDC     C552607   9.766  16.562  11.139  1.0153  0.4065 -0.0318
 4783UDC     C652608   9.712  16.417  11.103 -0.1084 -0.4640  0.3818
 4783UDC     C752609   9.816  16.311  11.137 -0.1265  0.0584 -0.1369
 4783UDC     C852610   9.842  16.272  11.268 -0.9729  0.5310 -0.6934
 4783UDC     C952611   9.918  16.141  11.267 -0.1875 -0.0468  0.0730
 4783UDC    C1052612   9.837  16.011  11.245 -0.4380  0.0525 -0.3026
 4783UDC    C1152613   9.925  15.886  11.249 -0.3187  0.2710 -0.7946
 4784UDC     C152614  10.648  10.278  15.945  0.1090 -0.8765  1.1022
 4784UDC     C252615  10.506  10.230  15.912  0.3185 -0.7200  0.1841
 4784UDC     C352616  10.481  10.153  15.788  0.0268 -0.1454  0.6028
 4784UDC     C452617  10.344  10.081  15.784 -0.0738  0.0534 -1.0202
 4784UDC     C552618  10.353   9.935  15.753 -0.6003 -0.0811 -0.5897
 4784UDC     C652619  10.423   9.927  15.620 -0.6832 -0.2727  0.1337
 4784UDC     C752620  10.460   9.776  15.618 -0.3547  0.7230 -0.1127
 4784UDC     C852621  10.511   9.740  15.478 -0.9401  0.5942 -0.7971
 4784UDC     C952622  10.532   9.590  15.450  0.1835  0.8371 -0.7617
 4784UDC    C1052623  10.496   9.548  15.307 -0.2513  0.4456  0.6969
 4784UDC    C1152624  10.567   9.622  15.191  0.9799 -0.0445  0.7105
 4785UDC     C152625   6.809  15.273   7.723  0.5523 -0.1796  0.4085
 4785UDC     C252626   6.886  15.400   7.670  0.8262  0.6269  0.3679
 4785UDC     C352627   6.791  15.477   7.579  0.1059 -0.3361 -0.0395
 4785UDC     C452628   6.866  15.539   7.461  0.2029 -0.0225  0.0356
 4785UDC     C552629   6.793  15.636   7.361  0.2881 -0.6050  0.1215
 4785UDC     C652630   6.887  15.652   7.240 -0.8990  0.3884  0.3005
 4785UDC     C752631   6.825  15.721   7.117  0.1001 -0.6083  0.1041
 4785UDC     C852632   6.920  15.750   6.998 -1.4543  0.7328  0.0901
 4785UDC     C952633   6.884  15.866   6.893  0.8434  0.8224 -0.5037
 4785UDC    C1052634   7.005  15.899   6.809  0.8269  0.6773 -0.1652
 4785UDC    C1152635   6.962  16.020   6.725  0.5205 -0.5379  0.8867
 4786UDC     C152636   1.227   0.327  16.723 -0.9741  1.4653  0.0981
 4786UDC     C252637   1.096   0.397  16.744  0.2319  0.9444  0.3102
 4786UDC     C352638   1.089   0.531  16.673 -0.1276 -0.7508 -0.8025
 4786UDC     C452639   0.966   0.619  16.677 -0.9891  0.7929 -0.6898
 4786UDC     C552640   1.000   0.751  16.608 -1.0546 -0.1711  0.1917
 4786UDC     C652641   0.909   0.864  16.651 -0.9664  0.0407  0.6349
 4786UDC     C752642   0.965   0.983  16.577  0.0910 -0.8935 -0.5003
 4786UDC     C852643   1.111   1.027  16.614  0.5994  0.4372  0.2351
 4786UDC     C952644   1.179   1.116  16.512  0.5492 -0.6011  0.9749
 4786UDC    C1052645   1.327   1.143  16.532  0.4463 -0.4472 -1.2568
 4786UDC    C1152646   1.431   1.062  16.457  0.5176  0.0811  0.1167
 4787UDC     C152647  11.016  16.811   5.390  0.1464  0.7503 -0.3178
 4787UDC     C252648  10.973  16.951   5.440  0.7853  0.1532 -0.0143
 4787UDC     C352649  10.956  16.993   5.577 -1.4290 -0.1183  0.4509
 4787UDC     C452650  10.862  16.916   5.667  0.5051  0.5044 -0.7017
 4787UDC     C552651  10.892  16.916   5.810  0.1870  0.5166 -0.4533
 4787UDC     C652652  10.856  16.772   5.857  0.8094 -0.6010 -0.7713
 4787UDC     C752653  10.917  16.744   5.996  0.7085  0.7102  0.2498
 4787UDC     C852654  10.919  16.587   6.010 -0.3246 -0.7496  0.1392
 4787UDC     C952655  11.027  16.544   5.909 -0.5439  0.2439 -0.7782
 4787UDC    C1052656  11.087  16.409   5.932  1.1559  0.2086 -0.8315
 4787UDC    C1152657  11.155  16.350   5.819 -0.7864 -0.1240  0.5947
 4788UDC     C152658  19.892  15.888   0.227  0.6678  0.6037  0.0903
 4788UDC     C252659  19.770  15.923   0.311  0.3013 -1.0233  0.0899
 4788UDC     C352660  19.682  15.806   0.263  0.3604  0.4389 -0.1989
 4788UDC     C452661  19.538  15.773   0.325  0.6597  0.3333 -0.1079
 4788UDC     C552662  19.563  15.736   0.469 -0.2971  0.3328 -0.3067
 4788UDC     C652663  19.631  15.604   0.493 -0.1468 -1.4553  0.3938
 4788UDC     C752664  19.646  15.601   0.649 -0.6247  0.3386 -0.4100
 4788UDC     C852665  19.511  15.579   0.724 -0.1822  0.6569 -0.6315
 4788UDC     C952666  19.516  15.602   0.875 -0.1570 -0.2634 -0.4521
 4788UDC    C1052667  19.638  15.542   0.951  0.5081 -0.1905 -0.4676
 4788UDC    C1152668  19.649  15.614   1.082  0.5296  0.2365 -0.5228
 4789UDC     C152669  12.026  18.615   4.723 -0.0293 -0.7394 -0.1252
 4789UDC     C252670  11.958  18.493   4.785 -0.3990  0.4594  0.1704
 4789UDC     C352671  11.864  18.433   4.687  0.2003 -1.0225 -0.1765
 4789UDC     C452672  11.764  18.331   4.735 -0.9798  0.5957 -0.6341
 4789UDC     C552673  11.791  18.274   4.874 -0.3597  0.7943 -0.3414
 4789UDC     C652674  11.730  18.132   4.866  0.0991  0.1797 -0.8315
 4789UDC     C752675  11.768  18.043   4.991  0.7996  0.3012  0.4698
 4789UDC     C852676  11.879  17.943   4.954 -0.3398 -0.3128 -1.3157
 4789UDC     C952677  12.005  18.002   4.894  0.3036  0.0204 -0.0305
 4789UDC    C1052678  12.133  17.920   4.881 -0.1394 -0.4550  0.5144
 4789UDC    C1152679  12.167  17.847   5.009 -0.1673  0.5319 -0.5225
 4790UDC     C152680  11.162  19.024  13.825  0.5705 -0.7574 -0.1740
 4790UDC     C252681  11.256  19.090  13.931 -0.6058  0.3635  0.0631
 4790UDC     C352682  11.381  19.167  13.878  0.3496 -1.6192  0.6302
 4790UDC     C452683  11.444  19.054  13.796  1.5688  1.1146 -0.2534
 4790UDC     C552684  11.563  19.085  13.705  0.0117  0.7035 -0.6403
 4790UDC     C652685  11.600  18.984  13.593  0.8219  0.5373 -0.1129
 4790UDC     C752686  11.647  19.050  13.465 -0.9624  0.4120 -0.5056
 4790UDC     C852687  11.779  19.129  13.468 -1.2043  0.5585 -0.1457
 4790UDC     C952688  11.853  19.145  13.333 -0.0919 -0.5855  0.0481
 4790UDC    C1052689  11.848  19.040  13.226  1.2544 -0.0615  0.0376
 4790UDC    C1152690  11.954  18.934  13.229  0.0967  0.9706  0.3049
 4791UDC     C152691  12.624  11.474   9.512  0.0317  0.4941  0.6886
 4791UDC     C252692  12.512  11.561   9.573 -0.7773 -0.2904 -0.8704
 4791UDC     C352693  12.443  11.499   9.699 -0.9446 -0.5547  0.2771
 4791UDC     C452694  12.405  11.618   9.800 -0.6633  1.2866 -0.5877
 4791UDC     C552695  12.337  11.586   9.939 -0.4413 -0.5429  0.9280
 4791UDC     C652696  12.269  11.448   9.955  0.0575  0.8379  0.1543
 4791UDC     C752697  12.160  11.448  10.060  0.4346  0.1674 -0.5418
 4791UDC     C852698  12.062  11.559  10.079 -0.0117  0.6988  0.9892
 4791UDC     C952699  11.947  11.548  10.187 -0.7574 -1.1994  0.3677
 4791UDC    C1052700  11.846  11.652  10.126  0.1732 -0.5079  0.1617
 4791UDC    C1152701  11.901  11.722   9.998 -0.8083  0.1671  0.2012
 4792UDC     C152702   1.274   6.189  18.180  1.0986  0.7438 -0.3706
 4792UDC     C252703   1.113   6.161  18.179 -0.3812 -0.5491  0.5975
 4792UDC     C352704   1.077   6.063  18.298  0.8419  0.2849 -0.1220
 4792UDC     C452705   1.146   6.127  18.424  0.2820  0.4421  0.5781
 4792UDC     C552706   1.046   6.137  18.533  0.2981 -0.1915 -0.0691
 4792UDC     C652707   1.114   6.171  18.671  0.6991 -0.6481  0.4440
 4792UDC     C752708   1.031   6.179  18.799 -0.7652 -0.0134  0.1243
 4792UDC     C852709   0.924   6.287  18.800 -0.5814  0.1616  1.5076
 4792UDC     C952710   0.849   6.294  18.927  0.8261  0.3316 -0.8664
 4792UDC    C1052711   0.730   6.394  18.919  0.2799  0.4977 -0.6598
 4792UDC    C1152712   0.746   6.526  18.843 -0.3295  0.1067  0.6969
 4793UDC     C152713  13.655   7.250   3.600 -0.4064 -0.3595  1.1336
 4793UDC     C252714  13.755   7.178   3.681  0.5801  1.2197  0.6103
 4793UDC     C352715  13.893   7.238   3.665 -0.0384  0.4130 -0.0797
 4793UDC     C452716  13.967   7.173   3.547  0.8104  0.3691  0.2446
 4793UDC     C552717  14.099   7.245   3.499  0.5057  1.6345  0.2602
 4793UDC     C652718  14.191   7.299   3.611  0.7480 -0.6731  0.6270
 4793UDC     C752719  14.329   7.232   3.621  0.2662  0.6757 -0.0088
 4793UDC     C852720  14.418   7.277   3.740 -0.6452 -0.5725  0.6016
 4793UDC     C952721  14.390   7.200   3.870 -0.3735 -0.2652 -0.3902
 4793UDC    C1052722  14.507   7.207   3.984 -0.0664  0.0283  1.4848
 4793UDC    C1152723  14.607   7.087   3.993  0.7576  0.2658 -0.4739
 4794UDC     C152724   1.725  17.217   1.256  0.5855  0.9149 -0.5904
 4794UDC     C252725   1.647  17.260   1.134  0.8345 -0.2100  0.9874
 4794UDC     C352726   1.727  17.386   1.088  0.2088  0.2009  0.3902
 4794UDC     C452727   1.659  17.522   1.097 -0.3491 -0.9559 -0.8055
 4794UDC     C552728   1.752  17.631   1.036 -0.0948  0.9354 -0.0284
 4794UDC     C652729   1.781  17.598   0.883 -0.6908 -0.2873 -0.8181
 4794UDC     C752730   1.647  17.610   0.816 -1.5681  0.9521  0.2044
 4794UDC     C852731   1.627  17.524   0.689  1.3883  0.6782 -1.0594
 4794UDC     C952732   1.640  17.620   0.574 -0.0147  0.2887  0.6218
 4794UDC    C1052733   1.666  17.555   0.437 -0.1567 -0.3808  0.1346
 4794UDC    C1152734   1.705  17.670   0.344  0.8074 -0.4153  0.3926
 4795UDC     C152735  18.368  10.940  18.056  0.1796 -0.0099 -1.2608
 4795UDC     C252736  18.310  10.802  18.020  0.0815  0.6191  0.0026
 4795UDC     C352737  18.230  10.715  18.125 -0.0648 -0.3608 -0.3889
 4795UDC     C452738  18.085  10.752  18.110  0.4730 -0.0397 -0.0519
 4795UDC     C552739  18.009  10.641  18.042  0.2348 -0.0251  0.2803
 4795UDC     C652740  17.976  10.522  18.129 -0.5344 -0.1337 -0.1772
 4795UDC     C752741  17.956  10.392  18.050 -1.4955 -0.8546  0.5599
 4795UDC     C852742  17.865  10.288  18.126 -0.8997 -1.7510  0.3449
 4795UDC     C952743  17.733  10.354  18.186 -0.1846 -0.4665  0.4251
 4795UDC    C1052744  17.625  10.249  18.222  0.6102  0.1197 -0.6441
 4795UDC    C1152745  17.498  10.302  18.283 -0.0464  0.2489 -0.8029
 4796UDC     C152746  13.060  16.441   4.433 -0.6046  0.7700 -0.3803
 4796UDC     C252747  12.981  16.314   4.439  0.7179  0.9802  0.2681
 4796UDC     C352748  12.909  16.275   4.311  0.7489  0.2570 -0.2087
 4796UDC     C452749  12.793  16.170   4.349  0.0623 -0.4778 -0.1920
 4796UDC     C552750  12.811  16.029   4.279  0.0765  0.2253 -0.1215
 4796UDC     C652751  12.826  16.041   4.128  0.3732  0.0634 -0.5618
 4796UDC     C752752  12.702  16.026   4.040 -2.0074 -0.1434  1.3085
 4796UDC     C852753  12.603  15.910   4.053 -0.3808  1.1560 -0.1531
 4796UDC     C952754  12.511  15.902   3.931 -0.4294  0.3478  0.2558
 4796UDC    C1052755  12.460  15.758   3.909 -0.5404 -0.2712 -0.5085
 4796UDC    C1152756  12.453  15.709   3.764 -0.1135 -1.2501  0.3712
 4797UDC     C152757  17.070  14.259  12.944  0.7893 -0.5468 -1.0743
 4797UDC     C252758  17.066  14.381  12.853 -1.2474 -0.3190 -0.3041
 4797UDC     C352759  16.933  14.445  12.833  0.0946  0.0696  0.5174
 4797UDC     C452760  16.917  14.601  12.820  0.6690  0.2816  1.3730
 4797UDC     C552761  16.770  14.658  12.821  0.8145  0.8820 -0.3142
 4797UDC     C652762  16.679  14.551  12.899 -0.3463 -0.6003  1.0025
 4797UDC     C752763  16.530  14.574  12.863 -0.0306 -0.5561 -1.0600
 4797UDC     C852764  16.492  14.716  12.832 -0.2887  0.0864  1.5150
 4797UDC     C952765  16.341  14.715  12.808  0.0447 -0.7525 -0.3919
 4797UDC    C1052766  16.243  14.722  12.932  0.6352  0.8096  0.4881
 4797UDC    C1152767  16.092  14.734  12.889 -0.2051  0.7676  0.6394
 4798UDC     C152768   0.400  16.644  18.196 -0.3106 -1.1777 -0.3546
 4798UDC     C252769   0.460  16.660  18.053  0.1581 -0.1666 -0.5200
 4798UDC     C352770   0.526  16.530  18.003 -0.3966  0.7380 -0.1597
 4798UDC     C452771   0.572  16.532  17.852 -0.3476  0.9391  0.7964
 4798UDC     C552772   0.458  16.515  17.749  0.4703  0.4538  0.5863
 4798UDC     C652773   0.500  16.411  17.645  0.2573  0.9027 -0.2859
 4798UDC     C752774   0.405  16.321  17.565 -0.2194  0.0420  0.1174
 4798UDC     C852775   0.308  16.381  17.455 -0.0947  0.0494 -0.5963
 4798UDC     C952776   0.295  16.276  17.344 -0.3704 -0.3625  0.4427
 4798UDC    C1052777   0.151  16.270  17.279 -0.1629  0.7156 -0.2722
 4798UDC    C1152778   0.161  16.203  17.141 -0.7142 -0.0462  1.0293
 4799UDC     C152779   7.291   9.834   1.382 -0.3626 -0.0077 -0.1406
 4799UDC     C252780   7.320   9.942   1.269 -0.3595  0.7669 -1.3789
 4799UDC     C352781   7.450   9.913   1.194 -0.3304  0.3617  0.5585
 4799UDC     C452782   7.477  10.014   1.087  0.3089 -1.5054  0.3174
 4799UDC     C552783   7.601   9.981   1.021 -0.1445  0.8089 -0.4339
 4799UDC     C652784   7.630  10.049   0.884  0.9641 -1.0860 -0.7080
 4799UDC     C752785   7.768  10.024   0.819  0.2180 -0.1417  1.0213
 4799UDC     C852786   7.767  10.085   0.676 -0.8646 -0.7718  0.5773
 4799UDC     C952787   7.845   9.996   0.582  0.4177  0.2423 -0.6263
 4799UDC    C1052788   7.761   9.952   0.462  0.2917  0.0939 -1.3435
 4799UDC    C1152789   7.814   9.824   0.394  1.7719  0.9564  0.0114
 4800UDC     C152790  19.870   1.702  11.318  0.2375 -0.9420 -0.2688
 4800UDC     C252791  19.969   1.629  11.226 -0.2064  0.0252  0.7033
 4800UDC     C352792  20.055   1.720  11.136 -0.2460 -0.6055  0.2254
 4800UDC     C452793  20.167   1.667  11.038 -0.2195 -0.1144  0.6280
 4800UDC     C552794  20.141   1.717  10.899 -0.5484 -0.4457  1.1107
 4800UDC     C652795  20.027   1.660  10.812 -0.8117 -0.6678  0.6478
 4800UDC     C752796  20.035   1.734  10.680  0.3109  1.2369  0.5740
 4800UDC     C852797  19.938   1.689  10.573  1.0845  0.8697  0.2117
 4800UDC     C952798  19.980   1.721  10.430 -0.6152  0.8990  1.1452
 4800UDC    C1052799  19.853   1.674  10.348 -0.4096 -0.5739 -0.0443
 4800UDC    C1152800  19.755   1.602  10.445 -0.0367 -0.0638  0.5960
 4801UDC     C152801   9.746  11.204   9.890  0.0021  0.8298  0.8962
 4801UDC     C252802   9.848  11.200   9.770 -0.2769 -0.8831 -0.4537
 4801UDC     C352803   9.791  11.122   9.658 -0.5506 -0.6091 -0.2186
 4801UDC     C452804   9.840  11.158   9.514  0.1877 -0.7287 -0.4524
 4801UDC     C552805   9.996  11.150   9.538  0.3301  0.8176  0.2401
 4801UDC     C652806  10.068  11.146   9.407  1.3126 -0.5257  0.4845
 4801UDC     C752807  10.092  10.994   9.377 -0.3264 -0.1234  0.5602
 4801UDC     C852808  10.215  10.942   9.444 -0.6365 -0.3827  0.0189
 4801UDC     C952809  10.270  10.828   9.363 -0.4278  0.1024  0.4424
 4801UDC    C1052810  10.245  10.694   9.433  0.3331  0.6876 -0.0099
 4801UDC    C1152811  10.293  10.676   9.579 -0.3604 -0.3951 -0.2838
 4802UDC     C152812   7.216  10.704   7.175  0.2343  0.2963  0.6791
 4802UDC     C252813   7.155  10.616   7.290  0.0290 -0.0269 -0.6377
 4802UDC     C352814   7.007  10.590   7.279 -0.3631 -0.2986  0.3461
 4802UDC     C452815   6.935  10.531   7.398 -0.5791  0.6704  0.4618
 4802UDC     C552816   6.918  10.640   7.505  0.5647 -0.6487  0.1202
 4802UDC     C652817   6.866  10.587   7.638  0.8260  0.7862  0.2292
 4802UDC     C752818   6.975  10.525   7.716  0.6186  0.5687  0.5442
 4802UDC     C852819   6.930  10.471   7.850  1.2288  0.5971 -1.1910
 4802UDC     C952820   6.897  10.322   7.820  0.4714 -0.2219  1.3542
 4802UDC    C1052821   6.870  10.254   7.947  0.3114  0.1367 -0.7873
 4802UDC    C1152822   6.838  10.104   7.940 -0.3784  0.5941  1.2677
 4803UDC     C152823  17.740  17.528   5.723  0.6613 -1.2324  0.3360
 4803UDC     C252824  17.706  17.442   5.603  0.2694  0.4901 -1.2688
 4803UDC     C352825  17.790  17.310   5.591 -0.7830 -0.7234 -0.2843
 4803UDC     C452826  17.943  17.342   5.576 -0.1129 -0.3114  1.4389
 4803UDC     C552827  18.001  17.407   5.444 -0.0740  0.1525  0.5067
 4803UDC     C652828  17.956  17.334   5.317 -0.1384  0.2506 -1.0687
 4803UDC     C752829  18.036  17.378   5.194 -1.4346  1.1588  0.1719
 4803UDC     C852830  18.163  17.300   5.176  0.0552  0.0731  0.1299
 4803UDC     C952831  18.224  17.317   5.035  0.0442 -0.0001 -1.0717
 4803UDC    C1052832  18.124  17.280   4.918 -0.6123 -0.9568 -0.2654
 4803UDC    C1152833  18.175  17.314   4.779  0.2460  0.6249 -0.0787
 4804UDC     C152834  19.003  19.354  18.082  0.4006 -0.3868  0.4379
 4804UDC     C252835  18.868  19.399  18.153  0.1989 -0.5399  0.3242
 4804UDC     C352836  18.855  19.396  18.302 -0.0068 -0.5501 -0.2083
 4804UDC     C452837  18.709  19.402  18.350 -0.2538 -0.8854 -0.1499
 4804UDC     C552838  18.648  19.541  18.316 -0.7143  0.0806  0.7617
 4804UDC     C652839  18.499  19.564  18.342  0.2395  0.1865  0.2610
 4804UDC     C752840  18.412  19.458  18.270  1.0914  0.3234 -0.3439
 4804UDC     C852841  18.264  19.478  18.317  0.0976  1.8376  0.2358
 4804UDC     C952842  18.153  19.542  18.229 -0.2293 -0.2488 -0.4306
 4804UDC    C1052843  18.017  19.528  18.291  0.3761 -0.4823 -0.3364
 4804UDC    C1152844  18.001  19.628  18.409  0.3845  0.2902  0.1786
 4805UDC     C152845  16.497   3.028  13.795 -0.2540  0.6637 -0.1238
 4805UDC     C252846  16.501   2.939  13.929 -0.6385  0.2574 -1.4466
 4805UDC     C352847  16.423   2.807  13.925 -1.1843 -0.1610  0.1409
 4805UDC     C452848  16.470   2.679  13.994  0.2336 -0.1619 -0.0327
 4805UDC     C552849  16.583   2.603  13.921 -0.2955  0.4651 -0.1536
 4805UDC     C652850  16.624   2.486  14.013  0.2170  0.6609  0.2475
 4805UDC     C752851  16.748   2.413  13.977 -0.0363 -0.3894  1.0141
 4805UDC     C852852  16.875   2.501  13.992 -0.1295  0.0413 -0.0353
 4805UDC     C952853  16.933   2.481  14.139  0.5352  0.1363 -1.5182
 4805UDC    C1052854  17.049   2.564  14.195  0.0142  0.2032 -0.0255
 4805UDC    C1152855  17.060   2.717  14.171 -0.0756 -0.3268 -0.2240
 4806UDC     C152856  10.418   6.349   6.961  1.1693  0.7931 -0.3251
 4806UDC     C252857  10.514   6.463   6.928  0.3862  0.4719 -0.3048
 4806UDC     C352858  10.515   6.552   7.053  0.0588  0.5937 -0.1187
 4806UDC     C452859  10.375   6.615   7.081  0.5449  0.4071 -0.1885
 4806UDC     C552860  10.359   6.771   7.091  0.9090 -0.1867 -0.2759
 4806UDC     C652861  10.275   6.819   7.211  0.5661  0.3840  0.1114
 4806UDC     C752862  10.125   6.795   7.235  0.0052 -0.4479  0.5802
 4806UDC     C852863  10.102   6.753   7.382 -0.4284 -0.0743  0.8142
 4806UDC     C952864  10.156   6.612   7.407  0.1337  0.0823 -0.1785
 4806UDC    C1052865  10.108   6.543   7.532 -0.4578  0.1640  0.5846
 4806UDC    C1152866  10.130   6.387   7.533  0.0997  0.2467  0.8117
 4807UDC     C152867  17.884   3.891   4.297  0.0388 -1.3578  0.3004
 4807UDC     C252868  17.833   3.762   4.359  0.7382  0.4048  0.6151
 4807UDC     C352869  17.908   3.636   4.322 -1.2989  0.5455 -0.0667
 4807UDC     C452870  17.881   3.524   4.426  0.8232 -0.3654 -0.2357
 4807UDC     C552871  17.781   3.413   4.389 -0.7669 -0.4993  0.2937
 4807UDC     C652872  17.845   3.313   4.289 -0.2302 -0.7211 -0.2627
 4807UDC     C752873  17.743   3.217   4.226 -0.7374  0.1479 -1.0036
 4807UDC     C852874  17.648   3.128   4.308  0.1077 -0.8251 -0.4659
 4807UDC     C952875  17.502   3.108   4.262 -0.6398  1.1666 -0.1877
 4807UDC    C1052876  17.399   3.095   4.376  0.3476  0.9660 -0.9547
 4807UDC    C1152877  17.257   3.077   4.341  0.7917  0.1410 -0.5745
 4808UDC     C152878   6.941  12.995  16.048 -0.6144 -0.1774 -0.1624
 4808UDC     C252879   7.015  12.871  15.988 -0.1906  0.2487  0.5794
 4808UDC     C352880   6.919  12.809  15.893 -0.4548  0.1215  0.7231
 4808UDC     C452881   6.867  12.896  15.779  0.7897  0.1128 -0.3049
 4808UDC     C552882   6.972  12.934  15.680 -0.3122 -0.4842  1.0024
 4808UDC     C652883   6.916  13.006  15.560  0.6925  0.0689  0.8600
 4808UDC     C752884   7.020  13.058  15.461  0.0662 -0.6993 -0.7479
 4808UDC     C852885   7.121  13.157  15.513 -1.0103  0.2722 -0.0915
 4808UDC     C952886   7.165  13.275  15.423  0.8740 -1.2544  0.1638
 4808UDC    C1052887   7.239  13.209  15.310  0.4182  0.1756 -0.0804
 4808UDC    C1152888   7.262  13.297  15.184 -0.2618 -0.4699 -0.3787
 4809UDC     C152889   2.170  15.820  14.974 -0.2839 -0.1805 -0.1267
 4809UDC     C252890   2.202  15.901  15.104  0.4576  0.6384  0.1881
 4809UDC     C352891   2.080  15.957  15.170  0.7016  0.0065  0.5713
 4809UDC     C452892   2.106  16.074  15.272 -0.3383 -0.2979  0.2687
 4809UDC     C552893   2.209  16.175  15.212  0.9642  1.3785  0.4815
 4809UDC     C652894   2.266  16.248  15.333  0.1431 -1.2030 -0.1754
 4809UDC     C752895   2.363  16.367  15.299 -0.0094  0.0287 -0.2321
 4809UDC     C852896   2.419  16.425  15.433  0.5146  0.0836 -0.1578
 4809UDC     C952897   2.318  16.524  15.499 -1.2617 -0.5435  0.6686
 4809UDC    C1052898   2.362  16.540  15.639 -0.8397  0.2327  0.0233
 4809UDC    C1152899   2.335  16.440  15.749  0.1936  0.3626 -0.5108
 4810UDC     C152900  16.523  13.085   3.268 -0.0414 -0.6332 -0.2503
 4810UDC     C252901  16.421  13.173   3.198  0.5963  0.9927  0.3026
 4810UDC     C352902  16.390  13.297   3.269  0.3583  0.9628  0.6676
 4810UDC     C452903  16.254  13.357   3.265  0.0800 -0.2254  0.0424
 4810UDC     C552904  16.134  13.282   3.324 -1.1681 -0.0331  0.3426
 4810UDC     C652905  16.036  13.237   3.220 -1.1567 -0.0235 -0.6251
 4810UDC     C752906  16.057  13.087   3.192  0.1050  0.8565  0.0872
 4810UDC     C852907  15.994  12.993   3.292  0.4579 -0.6083  1.5936
 4810UDC     C952908  15.858  13.024   3.348 -0.2452 -0.7565  0.1078
 4810UDC    C1052909  15.777  12.897   3.370 -0.1498 -0.5220 -0.7421
 4810UDC    C1152910  15.629  12.933   3.381  0.2078  0.7288  0.1506
 4811UDC     C152911   8.471   7.198   1.300 -1.0764 -0.4471  0.0453
 4811UDC     C252912   8.572   7.313   1.331  0.0091  1.1336 -0.1199
 4811UDC     C352913   8.607   7.327   1.478 -0.0413 -0.1016  0.1791
 4811UDC     C452914   8.606   7.453   1.568 -0.2173 -0.5344  0.4586
 4811UDC     C552915   8.663   7.582   1.507  0.0931  1.0100  0.2313
 4811UDC     C652916   8.814   7.601   1.496 -0.9062  0.5374 -0.3059
 4811UDC     C752917   8.901   7.601   1.624 -0.3501  0.5185  0.6784
 4811UDC     C852918   8.974   7.468   1.660  0.0297  0.5808 -0.2768
 4811UDC     C952919   8.989   7.367   1.537 -0.2005 -0.4848 -0.5217
 4811UDC    C1052920   9.111   7.283   1.583  0.5155  0.3340 -0.0973
 4811UDC    C1152921   9.112   7.210   1.722  0.8311  0.0840 -0.0001
 4812UDC     C152922  12.938   8.810  19.313 -0.0528 -0.1840 -0.3121
 4812UDC     C252923  13.009   8.892  19.204 -0.2231  0.7353 -0.5861
 4812UDC     C352924  12.999   9.051  19.223  0.4274  0.1845  0.2842
 4812UDC     C452925  13.123   9.127  19.197 -0.3748 -0.5920 -1.1627
 4812UDC     C552926  13.250   9.110  19.287 -0.3409  0.1086 -1.0971
 4812UDC     C652927  13.345   9.231  19.282  0.7645  0.8445 -0.9328
 4812UDC     C752928  13.490   9.209  19.341  0.5441 -0.6705 -0.6736
 4812UDC     C852929  13.546   9.354  19.354 -1.1151  0.7198 -0.0103
 4812UDC     C952930  13.701   9.356  19.392 -0.8451 -0.3166  0.4063
 4812UDC    C1052931  13.783   9.490  19.385  0.1152  0.0942  0.8799
 4812UDC    C1152932  13.935   9.490  19.374  0.6626 -0.6499 -1.2602
 4813UDC     C152933  10.081   7.494   8.956 -0.5124 -0.4753 -0.1370
 4813UDC     C252934   9.935   7.467   8.990  0.6230  0.1657 -0.1808
 4813UDC     C352935   9.910   7.324   9.052 -1.0283 -0.7362  0.9789
 4813UDC     C452936   9.908   7.206   8.955  0.5034 -0.0454  1.1418
 4813UDC     C552937   9.771   7.182   8.908  0.4251  0.1812 -0.7552
 4813UDC     C652938   9.757   7.090   8.785 -0.4498 -0.1840  0.1098
 4813UDC     C752939   9.848   6.973   8.784  0.5320  0.5114 -0.2209
 4813UDC     C852940   9.845   6.893   8.654  0.8191 -1.2267 -0.1351
 4813UDC     C952941   9.709   6.826   8.645 -1.4968 -0.0493  1.1480
 4813UDC    C1052942   9.672   6.780   8.502 -0.7303 -0.5015 -0.6817
 4813UDC    C1152943   9.517   6.775   8.510 -0.1621 -0.6250  0.5761
 4814UDC     C152944  10.097  16.558  18.119  0.5661  0.0168 -0.1275
 4814UDC     C252945  10.140  16.435  18.038  0.3738 -0.0201 -0.1844
 4814UDC     C352946  10.227  16.343  18.126 -0.3251 -0.0296  0.9158
 4814UDC     C452947  10.182  16.316  18.266 -1.0944  0.0498 -0.3602
 4814UDC     C552948  10.293  16.245  18.349 -0.4394 -0.4126  0.5087
 4814UDC     C652949  10.275  16.194  18.491  0.1884 -0.2523  0.6660
 4814UDC     C752950  10.228  16.281  18.612  0.3810 -0.1639  0.1105
 4814UDC     C852951  10.230  16.212  18.752  0.6298  0.3221  1.7686
 4814UDC     C952952  10.193  16.061  18.739 -0.1061 -0.6136  0.4718
 4814UDC    C1052953  10.228  15.973  18.857  0.5341  0.0092 -0.3990
 4814UDC    C1152954  10.155  15.834  18.852  0.4649  0.5114  0.3312
 4815UDC     C152955   1.502   0.687   0.833  0.3927 -0.1562  0.5509
 4815UDC     C252956   1.378   0.749   0.766  0.3749 -0.8694  0.8074
 4815UDC     C352957   1.402   0.848   0.647 -1.3544 -0.3622  0.8325
 4815UDC     C452958   1.315   0.831   0.525  0.1122  0.2795  0.7159
 4815UDC     C552959   1.363   0.722   0.426  0.6313  0.1852 -1.3206
 4815UDC     C652960   1.275   0.665   0.314  0.0552  0.7763  0.2604
 4815UDC     C752961   1.335   0.556   0.223 -0.5050  0.1588 -0.5313
 4815UDC     C852962   1.250   0.522   0.098 -0.1565 -0.5778 -0.0346
 4815UDC     C952963   1.274   0.378   0.064 -0.5646 -0.0398  0.5391
 4815UDC    C1052964   1.233   0.257   0.159  0.3463  1.4283 -0.1729
 4815UDC    C1152965   1.299   0.118   0.147 -0.8018  0.5745  0.2267
 4816UDC     C152966  17.073  19.072   0.181 -1.2847  0.6967  0.1793
 4816UDC     C252967  17.158  18.945   0.210 -0.7212 -0.5448 -0.5173
 4816UDC     C352968  17.138  18.836   0.108  0.0112  1.2085 -0.2948
 4816UDC     C452969  17.237  18.713   0.112  0.4506 -0.6441 -0.5493
 4816UDC     C552970  17.166  18.581   0.080 -0.7191 -0.6450 -0.1217
 4816UDC     C652971  17.254  18.496  -0.007  0.5861 -0.0934  0.1999
 4816UDC     C752972  17.247  18.543  -0.155 -0.2626  0.6227 -0.4475
 4816UDC     C852973  17.124  18.487  -0.233  0.8556 -0.3993 -0.0506
 4816UDC     C952974  17.075  18.564  -0.355  0.6630 -0.0188  0.2698
 4816UDC    C1052975  17.163  18.539  -0.479  0.1404 -0.1155  0.0967
 4816UDC    C1152976  17.121  18.641  -0.592 -0.1785 -0.6233  0.6379
 4817UDC     C152977  10.033   4.283   9.289 -0.0731  0.0795  0.0770
 4817UDC     C252978   9.967   4.220   9.171  0.6204  0.0909 -0.3325
 4817UDC     C352979   9.824   4.176   9.205 -0.7869 -1.1098 -0.2557
 4817UDC     C452980   9.817   4.105   9.345 -1.0474 -0.8176 -0.3103
 4817UDC     C552981   9.670   4.081   9.378 -0.6915  1.2203  1.1019
 4817UDC     C652982   9.584   4.202   9.353 -0.0491 -0.0814 -0.9850
 4817UDC     C752983   9.433   4.163   9.341  0.0024  0.6402  1.5387
 4817UDC     C852984   9.378   4.261   9.235  0.0908 -0.0334 -0.0693
 4817UDC     C952985   9.438   4.204   9.108 -0.9798 -0.2363  0.1448
 4817UDC    C1052986   9.402   4.294   8.986  0.4438 -0.3742  0.2045
 4817UDC    C1152987   9.257   4.310   8.950  0.7071  0.5097  0.3628
 4818UDC     C152988  17.954  16.180   0.828  0.0116  0.2996  0.8810
 4818UDC     C252989  17.904  16.313   0.876  0.1973 -0.0593 -0.2993
 4818UDC     C352990  17.955  16.435   0.798 -0.2215 -0.0209 -0.5637
 4818UDC     C452991  17.875  16.457   0.673  0.1173 -0.3053  0.1128
 4818UDC     C552992  17.931  16.546   0.570 -0.5765  0.8513 -0.8409
 4818UDC     C652993  17.820  16.583   0.478  0.0678 -0.4019 -0.6831
 4818UDC     C752994  17.717  16.674   0.544 -0.7542  0.3514 -0.1252
 4818UDC     C852995  17.636  16.747   0.444  0.0027  0.8604  0.1887
 4818UDC     C952996  17.690  16.871   0.384  0.2015 -0.2202  0.0400
 4818UDC    C1052997  17.613  16.939   0.263 -0.9143  1.3350  0.3886
 4818UDC    C1152998  17.464  16.941   0.287  0.7993 -0.9083  0.5351
 4819UDC     C152999   0.814  13.858  13.549 -0.4065  0.0317  0.1322
 4819UDC     C253000   0.905  13.979  13.556 -0.5451 -0.0396  1.0934
 4819UDC     C353001   0.867  14.076  13.449 -0.3735 -0.3184 -0.0218
 4819UDC     C453002   0.787  14.192  13.502  0.3630  0.0820 -0.8458
 4819UDC     C553003   0.717  14.287  13.395 -0.8926  0.2343  0.5522
 4819UDC     C653004   0.637  14.409  13.418 -0.4471 -0.0936  0.2339
 4819UDC     C753005   0.635  14.484  13.288  1.2379 -0.1541  0.8563
 4819UDC     C853006   0.522  14.592  13.263  0.1631 -0.1803 -1.1303
 4819UDC     C953007   0.510  14.671  13.130 -0.4997 -0.3089 -0.5880
 4819UDC    C1053008   0.643  14.744  13.112  0.3098  0.0384 -0.5534
 4819UDC    C1153009   0.651  14.854  13.219  0.7616 -0.2684 -0.6092
 4820UDC     C153010   0.076  16.305  18.294 -0.7918 -1.2603  0.1288
 4820UDC     C253011   0.124  16.179  18.362 -0.1243  0.1002  0.4465
 4820UDC     C353012   0.263  16.195  18.413 -0.7307 -0.2175  0.4713
 4820UDC     C453013   0.269  16.321  18.506  0.1330  0.4968 -0.1471
 4820UDC     C553014   0.190  16.316  18.639  0.0631 -0.0046  0.3403
 4820UDC     C653015   0.187  16.453  18.713  0.1178  0.6040  0.7092
 4820UDC     C753016   0.126  16.452  18.851 -1.1413 -1.1217 -0.7216
 4820UDC     C853017   0.212  16.412  18.971 -0.3004 -0.1866 -0.1868
 4820UDC     C953018   0.147  16.340  19.101  0.0949 -1.1391  0.8546
 4820UDC    C1053019   0.259  16.268  19.178  0.3443  0.2990  0.9619
 4820UDC    C1153020   0.307  16.159  19.092  1.0264  0.5367  0.8276
 4821UDC     C153021   0.631  15.688  16.913  0.4872 -0.0914 -1.6064
 4821UDC     C253022   0.566  15.800  16.988 -0.1255  0.0267  0.1017
 4821UDC     C353023   0.651  15.932  16.959  0.4162  0.0222 -0.6660
 4821UDC     C453024   0.602  16.050  17.047  0.3034  0.3441  0.4006
 4821UDC     C553025   0.666  16.192  17.034 -0.4764  0.2652 -0.2853
 4821UDC     C653026   0.598  16.313  17.116  0.4186 -0.2082  0.9716
 4821UDC     C753027   0.650  16.461  17.080 -0.1137  0.0349  0.1050
 4821UDC     C853028   0.561  16.559  17.165  0.2765 -0.4582  1.0873
 4821UDC     C953029   0.612  16.708  17.168  0.2502 -0.0477 -0.0492
 4821UDC    C1053030   0.492  16.799  17.201  0.5702 -0.4314 -0.2402
 4821UDC    C1153031   0.530  16.942  17.231  0.1643  0.0576  0.1103
 4822UDC     C153032  15.507   9.747   8.752 -0.4111 -0.3697  0.3224
 4822UDC     C253033  15.636   9.685   8.715  0.2973 -0.0117  0.3366
 4822UDC     C353034  15.727   9.686   8.834 -0.8821 -0.0529  0.3691
 4822UDC     C453035  15.858   9.610   8.819  1.5216 -0.1663  0.8566
 4822UDC     C553036  15.914   9.536   8.940 -0.2102 -0.6347 -1.0557
 4822UDC     C653037  15.829   9.437   9.021 -1.5474  0.5680 -0.0634
 4822UDC     C753038  15.897   9.326   9.102 -0.1265 -1.5609  0.0173
 4822UDC     C853039  15.801   9.240   9.189  0.1608 -0.0703  0.3831
 4822UDC     C953040  15.851   9.100   9.231  0.0206  1.4814 -0.3804
 4822UDC    C1053041  15.755   8.975   9.241  0.4058 -0.7074 -0.4805
 4822UDC    C1153042  15.816   8.850   9.305  0.2192 -0.4160 -0.2070
 4823UDC     C153043  14.292  14.659  17.573  0.1429 -0.0948  0.1456
 4823UDC     C253044  14.420  14.721  17.644 -0.8783  0.0418 -1.1653
 4823UDC     C353045  14.422  14.870  17.606  0.0345 -0.9250 -0.4898
 4823UDC     C453046  14.426  14.876  17.454 -0.0908 -0.0688 -0.1550
 4823UDC     C553047  14.556  14.813  17.404 -0.3061 -0.1043 -0.3221
 4823UDC     C653048  14.568  14.806  17.249  0.2053  0.2680 -0.9934
 4823UDC     C753049  14.636  14.934  17.194 -0.5457  0.4545  0.1117
 4823UDC     C853050  14.748  14.923  17.094  0.6052  0.7135  0.0301
 4823UDC     C953051  14.828  15.048  17.072 -0.3595 -0.7525 -0.1059
 4823UDC    C1053052  14.897  15.109  17.199  0.6825 -0.0573 -1.0648
 4823UDC    C1153053  14.969  15.242  17.189  0.2378 -0.2883  1.2423
 4824UDC     C153054  13.959  17.187   2.187  0.8555 -0.0361  0.0616
 4824UDC     C253055  13.928  17.067   2.101  0.6868 -0.4501  0.9335
 4824UDC     C353056  13.879  16.937   2.177  0.0336 -0.0162  1.2098
 4824UDC     C453057  13.913  16.817   2.074  0.3445 -0.2055 -0.4786
 4824UDC     C553058  14.062  16.827   2.035  0.4943  0.9972  1.1688
 4824UDC     C653059  14.170  16.784   2.137 -0.3383 -0.4384  0.3066
 4824UDC     C753060  14.313  16.779   2.089 -0.0477 -0.5705  0.2197
 4824UDC     C853061  14.352  16.893   1.986  0.3182 -0.3712 -0.9830
 4824UDC     C953062  14.482  16.858   1.924 -1.0687 -0.8717  0.2954
 4824UDC    C1053063  14.604  16.842   2.021 -0.2728  0.4026  0.5769
 4824UDC    C1153064  14.737  16.842   1.954 -0.1184  0.3604 -0.0478
 4825UDC     C153065   4.912  10.128   0.556 -0.2578 -0.2009  0.4728
 4825UDC     C253066   4.847   9.993   0.566  1.3803  0.0948  0.2104
 4825UDC     C353067   4.789   9.966   0.710 -0.3719 -0.1320  0.6687
 4825UDC     C453068   4.765   9.822   0.752  0.2897  0.1983  0.5325
 4825UDC     C553069   4.878   9.738   0.678 -0.0102  0.4265 -1.5735
 4825UDC     C653070   5.009   9.721   0.765 -0.8961  0.1166 -0.1976
 4825UDC     C753071   5.033   9.603   0.855  0.2670 -0.4745  0.0122
 4825UDC     C853072   5.179   9.596   0.891 -1.3238  0.4529 -0.0989
 4825UDC     C953073   5.181   9.482   0.992 -0.2636 -0.5202  0.5131
 4825UDC    C1053074   5.133   9.521   1.133 -0.9383  0.4340  1.1199
 4825UDC    C1153075   5.194   9.655   1.188  0.6092  0.3639  1.3740
 4826UDC     C153076   6.406   4.496  11.051 -0.3432  0.4451 -1.1373
 4826UDC     C253077   6.428   4.344  11.046  0.5160  0.1049 -0.1973
 4826UDC     C353078   6.294   4.273  11.083 -0.0736  0.4586 -0.5425
 4826UDC     C453079   6.325   4.147  11.164  0.0222 -1.0177  0.1383
 4826UDC     C553080   6.209   4.122  11.255 -0.6450  0.3632  0.1237
 4826UDC     C653081   6.200   4.226  11.369  0.0276 -1.1128 -0.3863
 4826UDC     C753082   6.322   4.217  11.469 -0.0474  0.5621  0.8585
 4826UDC     C853083   6.308   4.322  11.582 -0.1190 -0.1516  0.7998
 4826UDC     C953084   6.178   4.311  11.663  0.4454  0.9095 -0.2905
 4826UDC    C1053085   6.186   4.246  11.803  0.2247  0.2788  0.1516
 4826UDC    C1153086   6.068   4.243  11.897 -0.6949  0.5973 -0.5524
 4827UDC     C153087   8.382   0.144   9.268  0.1476 -0.1907 -0.2335
 4827UDC     C253088   8.492   0.056   9.212 -0.1939 -0.3271 -0.3903
 4827UDC     C353089   8.454  -0.029   9.086  0.3423 -0.6775  0.6890
 4827UDC     C453090   8.526  -0.157   9.030 -0.2375  0.2030  0.6653
 4827UDC     C553091   8.484  -0.212   8.890 -0.5586  1.5306  0.3968
 4827UDC     C653092   8.493  -0.112   8.773  0.4994 -0.7747  1.2420
 4827UDC     C753093   8.440  -0.169   8.633 -0.0697  0.2192 -0.1003
 4827UDC     C853094   8.527  -0.131   8.515 -0.0582  0.7198 -0.5935
 4827UDC     C953095   8.651  -0.216   8.507 -0.0170 -0.0119 -0.8993
 4827UDC    C1053096   8.768  -0.194   8.608 -0.7806  0.2907  0.5121
 4827UDC    C1153097   8.811  -0.047   8.609  0.2027 -0.2962  0.1993
 4828UDC     C153098  12.934  13.236  19.369 -0.1586 -0.0784  0.9060
 4828UDC     C253099  13.009  13.217  19.242  0.2426 -0.5967  0.5079
 4828UDC     C353100  12.924  13.247  19.116  0.6624 -0.1109 -0.4149
 4828UDC     C453101  12.976  13.205  18.980  0.2847 -0.3384  0.2879
 4828UDC     C553102  12.889  13.170  18.857 -0.5923 -0.4631 -0.7075
 4828UDC     C653103  12.961  13.083  18.755  1.1034  0.7031  1.2761
 4828UDC     C753104  12.922  13.102  18.609  0.3533 -0.3473 -0.7608
 4828UDC     C853105  13.010  13.014  18.514 -0.5171 -0.4919 -0.6567
 4828UDC     C953106  12.972  13.029  18.366 -0.9156  1.1424  1.2288
 4828UDC    C1053107  13.102  13.015  18.284  0.5905  0.3066 -0.1295
 4828UDC    C1153108  13.210  13.112  18.328 -0.7709 -0.1236 -0.6558
 4829UDC     C153109   0.359  18.966   3.252 -0.8906  0.7146 -0.5803
 4829UDC     C253110   0.336  19.083   3.351  0.3683 -0.8327  0.0439
 4829UDC     C353111   0.399  19.094   3.487 -0.4744  0.5534 -0.3918
 4829UDC     C453112   0.369  19.214   3.578 -0.4430 -1.0202 -1.0332
 4829UDC     C553113   0.417  19.342   3.517 -0.0953 -0.3258 -0.2360
 4829UDC     C653114   0.401  19.461   3.620  0.1313 -0.3632 -0.9832
 4829UDC     C753115   0.426  19.595   3.558  0.1987 -0.0632 -0.7304
 4829UDC     C853116   0.443  19.696   3.675  0.5823 -0.1701  0.3850
 4829UDC     C953117   0.478  19.835   3.626  0.7140  1.3499  0.6775
 4829UDC    C1053118   0.484  19.935   3.738  0.1902  0.1403 -0.7970
 4829UDC    C1153119   0.340  19.973   3.789  0.1862 -0.0282 -0.4531
 4830UDC     C153120  13.931  10.847   0.857 -0.3188 -0.8751 -0.1059
 4830UDC     C253121  13.999  10.963   0.778  0.7812 -0.1335 -0.8766
 4830UDC     C353122  13.954  11.081   0.867 -0.4777  0.3231 -0.2473
 4830UDC     C453123  13.994  11.231   0.832 -0.3401 -0.5688 -0.4525
 4830UDC     C553124  13.939  11.359   0.903 -0.1972 -0.2393  0.7545
 4830UDC     C653125  13.970  11.493   0.829 -0.0925  0.1775  0.1646
 4830UDC     C753126  14.034  11.617   0.898  0.4270 -0.6905 -0.6543
 4830UDC     C853127  14.181  11.613   0.943  0.7517  0.8752  0.3081
 4830UDC     C953128  14.208  11.571   1.089 -1.0086  0.2861 -0.5127
 4830UDC    C1053129  14.191  11.414   1.116 -0.1445  0.0076  0.0815
 4830UDC    C1153130  14.276  11.335   1.012  0.4138  0.1608  0.3143
 4831UDC     C153131   9.423   4.473   7.218 -0.8886  0.4619  1.3582
 4831UDC     C253132   9.433   4.505   7.368 -1.0289  0.0210  0.3669
 4831UDC     C353133   9.313   4.455   7.445  0.3236  0.9851 -0.5038
 4831UDC     C453134   9.179   4.485   7.367  0.4171 -0.1812 -0.5927
 4831UDC     C553135   9.083   4.594   7.432 -0.0105  0.9285 -0.2443
 4831UDC     C653136   9.138   4.726   7.498  0.0181  0.7822  0.0142
 4831UDC     C753137   9.014   4.816   7.508 -0.3073  0.8449 -0.0033
 4831UDC     C853138   8.973   4.844   7.370  0.4445 -0.1513  0.6423
 4831UDC     C953139   8.832   4.907   7.366 -0.1847  0.5704 -0.3407
 4831UDC    C1053140   8.779   4.957   7.227  0.0142 -0.5476 -0.3540
 4831UDC    C1153141   8.787   4.838   7.124  0.0362 -1.6708  0.6151
 4832UDC     C153142   1.635  14.634   1.382 -0.1746 -0.9654  0.4101
 4832UDC     C253143   1.783  14.670   1.337 -0.2746 -0.1963 -0.9960
 4832UDC     C353144   1.804  14.813   1.393 -0.2914  0.8813 -0.0024
 4832UDC     C453145   1.882  14.914   1.315 -0.3020  0.0948  0.6874
 4832UDC     C553146   1.913  15.041   1.406  0.5924 -0.1168 -0.2748
 4832UDC     C653147   2.066  15.062   1.419 -0.2745  0.0401 -1.4813
 4832UDC     C753148   2.112  15.170   1.527 -0.3499 -0.1669  0.6426
 4832UDC     C853149   2.257  15.217   1.533 -0.2373  0.3059 -0.4052
 4832UDC     C953150   2.366  15.114   1.565 -0.9825  0.0327  0.9768
 4832UDC    C1053151   2.506  15.176   1.550  0.0021 -0.2552 -0.7854
 4832UDC    C1153152   2.526  15.317   1.605  0.0800 -0.7164  0.8387
 4833UDC     C153153  10.332   2.662  19.375 -0.6107 -1.4894  0.8242
 4833UDC     C253154  10.334   2.727  19.510 -0.0887 -0.0995  0.0328
 4833UDC     C353155  10.261   2.863  19.526 -0.3078  1.5574  0.0976
 4833UDC     C453156  10.317   2.941  19.646 -0.7817 -0.7073  0.0898
 4833UDC     C553157  10.266   3.083  19.679 -0.2282  0.6522  1.3413
 4833UDC     C653158  10.344   3.141  19.800 -0.2519  0.1561  0.3522
 4833UDC     C753159  10.287   3.275  19.843  0.9816 -0.1916  1.0166
 4833UDC     C853160  10.366   3.356  19.950  0.5554  0.7172  0.4155
 4833UDC     C953161  10.432   3.482  19.890 -0.1026 -0.6962 -0.6618
 4833UDC    C1053162  10.330   3.599  19.867  0.0774  0.2312  1.1763
 4833UDC    C1153163  10.387   3.730  19.797 -0.1007  0.3162  0.5307
 4834UDC     C153164  18.818   0.576  16.682  0.8804  0.0237  0.1610
 4834UDC     C253165  18.956   0.508  16.711 -0.0939 -0.5082  0.6618
 4834UDC     C353166  19.074   0.572  16.789  0.6821 -0.8019  1.2977
 4834UDC     C453167  19.187   0.466  16.796 -1.2154  0.4020 -1.6103
 4834UDC     C553168  19.319   0.506  16.730 -0.5565 -0.5929  0.2473
 4834UDC     C653169  19.411   0.386  16.769 -0.5414 -0.2591 -0.9928
 4834UDC     C753170  19.386   0.357  16.916 -0.6464 -0.5710 -0.9069
 4834UDC     C853171  19.526   0.311  16.968 -0.2795  0.0513  0.9338
 4834UDC     C953172  19.500   0.260  17.108  1.0641  0.5906 -0.6477
 4834UDC    C1053173  19.625   0.243  17.200 -1.6645  0.7656  0.2853
 4834UDC    C1153174  19.594   0.198  17.348  0.4985 -1.2920  0.0299
 4835UDC     C153175  18.034   4.993   8.357 -0.2757  0.3217 -0.7313
 4835UDC     C253176  18.186   5.005   8.391 -0.8387  0.3212 -0.3333
 4835UDC     C353177  18.260   4.887   8.459 -0.7379  0.5492  1.4036
 4835UDC     C453178  18.388   4.912   8.528 -0.3880 -0.0728 -0.0236
 4835UDC     C553179  18.454   4.787   8.587 -0.0752  1.2646 -0.3050
 4835UDC     C653180  18.369   4.724   8.703  0.1993  1.2343  0.9235
 4835UDC     C753181  18.439   4.601   8.767 -0.5695 -0.5340 -0.9625
 4835UDC     C853182  18.396   4.542   8.905 -0.7999 -0.0624 -0.2686
 4835UDC     C953183  18.520   4.494   8.980  0.1973 -0.4025  0.4826
 4835UDC    C1053184  18.518   4.357   9.059 -0.3997  0.5846 -0.4832
 4835UDC    C1153185  18.646   4.314   9.125 -0.0104 -0.1122  1.2344
 4836UDC     C153186  13.038  11.451   4.709  0.5786 -0.5528 -0.2028
 4836UDC     C253187  13.184  11.499   4.705  0.6073 -0.9461  0.1817
 4836UDC     C353188  13.287  11.432   4.608  0.3991  0.3539  0.1639
 4836UDC     C453189  13.304  11.283   4.633 -0.4257 -0.4199 -1.1866
 4836UDC     C553190  13.390  11.187   4.541 -0.0388  0.4264  0.5804
 4836UDC     C653191  13.536  11.170   4.586 -0.3140  0.1734  0.1487
 4836UDC     C753192  13.553  11.114   4.730  0.3803 -0.2520  0.7259
 4836UDC     C853193  13.473  10.981   4.754 -0.1991 -0.0650 -0.6585
 4836UDC     C953194  13.494  10.921   4.895  1.0645 -0.7278 -0.6105
 4836UDC    C1053195  13.635  10.924   4.952  0.7092  0.6356 -0.5142
 4836UDC    C1153196  13.652  10.888   5.099  0.1765 -0.4465  0.7753
 4837UDC     C153197  16.926   5.880  11.567 -0.0104  0.2045  0.7080
 4837UDC     C253198  17.020   5.910  11.686  0.0455 -0.1128  0.8567
 4837UDC     C353199  17.107   6.033  11.661  0.0246 -1.2434 -0.2067
 4837UDC     C453200  17.030   6.167  11.658  0.1743 -0.3158  0.3748
 4837UDC     C553201  17.105   6.294  11.690  0.5989  1.5184 -0.2666
 4837UDC     C653202  17.231   6.294  11.768 -0.6124 -0.2332 -0.3018
 4837UDC     C753203  17.296   6.439  11.773  0.0477 -0.0155 -1.0749
 4837UDC     C853204  17.341   6.481  11.631  0.2168  0.6731 -0.9862
 4837UDC     C953205  17.460   6.392  11.591  0.0268 -0.4033 -0.2543
 4837UDC    C1053206  17.505   6.402  11.447 -0.4591  0.2235 -0.2376
 4837UDC    C1153207  17.533   6.554  11.425 -1.0382  0.7630  0.1815
 4838UDC     C153208   6.151  16.148  14.253 -0.1040 -0.1217 -0.6130
 4838UDC     C253209   6.067  16.257  14.332  0.2036 -0.1118 -0.0827
 4838UDC     C353210   5.914  16.239  14.331 -1.0306 -0.3765 -0.5303
 4838UDC     C453211   5.853  16.352  14.417  0.3895  0.3141  0.7405
 4838UDC     C553212   5.885  16.363  14.565  0.7729  0.4911  0.8419
 4838UDC     C653213   5.831  16.479  14.640  0.9449  0.3932 -0.3562
 4838UDC     C753214   5.862  16.477  14.783 -0.0977 -0.0722  0.0902
 4838UDC     C853215   6.013  16.443  14.815 -0.8011  0.0808  0.8911
 4838UDC     C953216   6.064  16.473  14.957  0.4202 -0.3659 -1.0025
 4838UDC    C1053217   6.031  16.618  15.004 -0.5947 -0.0317  0.6980
 4838UDC    C1153218   5.947  16.626  15.134 -0.2889  0.2264 -0.4693
 4839UDC     C153219  10.455  14.170  10.901 -0.9759  0.0416 -0.5980
 4839UDC     C253220  10.542  14.117  11.019 -0.6192 -0.0416 -0.0270
 4839UDC     C353221  10.618  13.983  10.976 -0.1528 -0.6816 -1.1593
 4839UDC     C453222  10.593  13.885  11.094  0.4102 -1.0180 -0.0112
 4839UDC     C553223  10.715  13.809  11.134  0.2197 -0.0368  0.7545
 4839UDC     C653224  10.762  13.725  11.013  1.0704 -0.5646 -1.2342
 4839UDC     C753225  10.911  13.700  11.005 -0.1829 -0.8193 -0.3619
 4839UDC     C853226  10.964  13.605  10.898 -0.0168 -1.3898  0.5939
 4839UDC     C953227  10.965  13.662  10.756  0.3450  0.3687  0.5287
 4839UDC    C1053228  11.036  13.574  10.656 -0.3493  0.9033  0.5582
 4839UDC    C1153229  11.024  13.619  10.510 -0.3748 -0.3819  0.0139
 4840UDC     C153230  19.300   6.737  18.392  0.3536 -0.7344  0.7318
 4840UDC     C253231  19.380   6.618  18.350  0.0418 -0.0161  0.6371
 4840UDC     C353232  19.340   6.537  18.229  0.3225  0.2900  0.9153
 4840UDC     C453233  19.439   6.432  18.193  0.3449 -0.5932 -0.1191
 4840UDC     C553234  19.445   6.301  18.278 -0.3671 -1.1022 -0.3306
 4840UDC     C653235  19.572   6.219  18.255 -0.3717 -0.3396 -0.0069
 4840UDC     C753236  19.713   6.250  18.310 -0.4419 -0.1705  0.1880
 4840UDC     C853237  19.792   6.118  18.325  0.5817  0.2776 -0.5586
 4840UDC     C953238  19.741   6.018  18.423  0.0638  0.1415  0.1952
 4840UDC    C1053239  19.763   5.872  18.388  0.2021  1.0896  0.2426
 4840UDC    C1153240  19.663   5.778  18.461  0.3355  0.2603  0.1261
 4841UDC     C153241   1.132  12.404  10.886  0.9941 -0.1758 -0.8147
 4841UDC     C253242   1.036  12.518  10.902 -0.6136  0.5161 -0.0843
 4841UDC     C353243   1.102  12.643  10.962 -1.1190  0.8809  0.1355
 4841UDC     C453244   1.021  12.773  10.967  0.4497 -1.3117 -0.1251
 4841UDC     C553245   1.103  12.866  11.059 -1.0668 -0.2541  1.7343
 4841UDC     C653246   1.065  13.012  11.044 -0.2326 -1.1343 -0.1188
 4841UDC     C753247   1.116  13.085  10.916  0.5353 -0.0034  0.9773
 4841UDC     C853248   1.117  13.235  10.954 -0.0371  0.0950  0.3165
 4841UDC     C953249   1.218  13.325  10.885 -0.0655  0.9024 -0.1142
 4841UDC    C1053250   1.220  13.465  10.944  0.1564  0.5764  0.3443
 4841UDC    C1153251   1.256  13.483  11.093  0.8000  0.1561  0.5685
 4842UDC     C153252   7.238  16.840  11.917  0.2252  0.1432  0.1816
 4842UDC     C253253   7.148  16.803  11.800  1.2935  0.2391 -0.4795
 4842UDC     C353254   7.199  16.858  11.668  1.1612  0.1099 -0.1119
 4842UDC     C453255   7.084  16.887  11.569 -0.2771  0.0989  0.1398
 4842UDC     C553256   7.114  16.933  11.424 -1.0440  0.0814 -0.0651
 4842UDC     C653257   7.248  17.001  11.402 -0.0896 -0.0160 -0.4274
 4842UDC     C753258   7.344  16.978  11.285 -0.3805  0.0540  0.5603
 4842UDC     C853259   7.425  17.107  11.262 -1.0906  1.6023 -0.2739
 4842UDC     C953260   7.531  17.095  11.149 -1.1046 -0.2626 -1.6465
 4842UDC    C1053261   7.468  17.040  11.022 -0.5978 -0.3957 -0.3121
 4842UDC    C1153262   7.576  16.990  10.922  0.5462 -0.1589 -0.5503
 4843UDC     C153263  12.572  17.430  16.878 -0.6140 -0.5178  0.9344
 4843UDC     C253264  12.466  17.527  16.908 -0.1881 -0.0379  0.7557
 4843UDC     C353265  12.492  17.655  16.991  0.2482 -1.4370 -0.1344
 4843UDC     C453266  12.541  17.783  16.914  0.0947  0.0599 -0.1512
 4843UDC     C553267  12.429  17.833  16.826 -0.3411  0.3259  0.0490
 4843UDC     C653268  12.472  17.932  16.721  0.3955 -1.5618 -0.5186
 4843UDC     C753269  12.352  17.992  16.635  0.3252 -0.8394 -0.6216
 4843UDC     C853270  12.265  18.101  16.706 -0.3685  0.0850 -0.7138
 4843UDC     C953271  12.337  18.214  16.784  0.2615 -0.1907  0.4963
 4843UDC    C1053272  12.245  18.313  16.855 -0.8899  0.2594 -0.5165
 4843UDC    C1153273  12.127  18.377  16.779  1.0553  0.0439 -0.9389
 4844UDC     C153274  16.908   3.146  14.384 -0.4939  1.2924 -0.4636
 4844UDC     C253275  16.934   3.291  14.332  0.3895  0.0904 -0.1111
 4844UDC     C353276  17.086   3.323  14.304  0.7647 -0.1147  0.3291
 4844UDC     C453277  17.131   3.240  14.184 -0.5043 -0.3062 -0.1120
 4844UDC     C553278  17.283   3.201  14.180 -0.6495 -0.0927  0.3013
 4844UDC     C653279  17.331   3.150  14.042 -0.5476 -0.7142  0.0825
 4844UDC     C753280  17.472   3.069  14.039  0.2878 -0.0957  0.4596
 4844UDC     C853281  17.482   2.969  13.921 -0.2514 -0.0699  0.8678
 4844UDC     C953282  17.373   2.865  13.918  0.4172 -0.2040 -0.3926
 4844UDC    C1053283  17.381   2.739  13.828  1.7945 -0.3133 -0.1822
 4844UDC    C1153284  17.319   2.759  13.688 -0.0733  0.1915 -0.0766
 4845UDC     C153285  12.518  11.643   3.648 -0.4487  0.9327  0.0985
 4845UDC     C253286  12.667  11.630   3.695 -0.6328  0.4041 -0.8714
 4845UDC     C353287  12.763  11.746   3.661  0.6757  0.3411  1.2983
 4845UDC     C453288  12.841  11.748   3.526  0.4204  0.0377  0.2451
 4845UDC     C553289  12.960  11.656   3.526 -0.6609  0.9883 -0.1870
 4845UDC     C653290  12.981  11.601   3.377  0.2092 -0.7836 -0.0453
 4845UDC     C753291  13.010  11.719   3.278  0.0590  0.5378  0.7022
 4845UDC     C853292  13.132  11.797   3.311 -0.0417 -0.5995  0.0440
 4845UDC     C953293  13.198  11.849   3.183 -0.0387  0.2081  0.7412
 4845UDC    C1053294  13.169  11.980   3.111 -0.1820 -0.5542 -0.6615
 4845UDC    C1153295  13.174  12.105   3.197 -0.7873 -0.5222 -0.3135
 4846UDC     C153296   4.134   7.379  10.569 -0.3189 -1.4149  0.2225
 4846UDC     C253297   4.041   7.264  10.596  0.4665  0.3262 -1.0139
 4846UDC     C353298   3.984   7.277  10.742 -0.1720  0.9149  0.4607
 4846UDC     C453299   3.835   7.281  10.781  0.3300 -0.1082 -0.3244
 4846UDC     C553300   3.758   7.182  10.698  0.0076  0.1860 -0.2484
 4846UDC     C653301   3.605   7.175  10.719  0.9911 -0.3104 -0.0955
 4846UDC     C753302   3.599   7.078  10.839 -0.1416  0.6803 -0.1627
 4846UDC     C853303   3.452   7.053  10.882 -0.0812 -0.0819 -0.9255
 4846UDC     C953304   3.474   7.093  11.027 -0.0347 -1.2149  0.2472
 4846UDC    C1053305   3.443   6.964  11.104  0.4025 -0.8814  0.8412
 4846UDC    C1153306   3.506   6.837  11.055  0.1887  0.6321  0.9006
 4847UDC     C153307   0.867   8.823   3.660  0.0131 -0.5742 -0.1650
 4847UDC     C253308   0.729   8.781   3.700 -0.3855 -1.8509  0.0197
 4847UDC     C353309   0.665   8.835   3.829 -0.4118  0.8695  0.6676
 4847UDC     C453310   0.524   8.791   3.860 -0.7547 -0.1007  0.9024
 4847UDC     C553311   0.423   8.846   3.754  0.6528  0.0349 -0.8128
 4847UDC     C653312   0.398   8.997   3.755 -0.0148 -0.2961  0.6994
 4847UDC     C753313   0.278   9.050   3.839 -0.6907 -0.8063  0.6088
 4847UDC     C853314   0.263   9.207   3.819  0.5248  0.7334 -0.6512
 4847UDC     C953315   0.341   9.255   3.698 -0.4787  0.2656  0.1354
 4847UDC    C1053316   0.272   9.256   3.560 -0.4607  0.5255  0.2831
 4847UDC    C1153317   0.143   9.342   3.581 -0.2765  0.9485  0.1763
 4848UDC     C153318   6.049   6.950  15.332 -0.3149  0.0741 -0.3228
 4848UDC     C253319   5.910   7.001  15.381  0.0525  0.7249  0.5566
 4848UDC     C353320   5.785   6.927  15.317  0.4873 -0.1209  0.0162
 4848UDC     C453321   5.711   6.827  15.399  0.1613  1.0599 -1.2453
 4848UDC     C553322   5.629   6.886  15.517 -1.5033  0.3118 -0.3456
 4848UDC     C653323   5.546   7.004  15.452 -0.0595 -0.2213 -0.8260
 4848UDC     C753324   5.483   7.116  15.542  0.9030 -0.8348  0.0469
 4848UDC     C853325   5.494   7.258  15.494 -0.5706 -0.6035 -0.2044
 4848UDC     C953326   5.568   7.281  15.363 -0.2876 -1.4603 -0.4953
 4848UDC    C1053327   5.566   7.439  15.335  0.4343 -0.7114  0.0206
 4848UDC    C1153328   5.572   7.468  15.181 -0.6038 -0.3705 -0.8020
 4849UDC     C153329  10.839   7.697  11.590  0.3961 -0.9122 -0.5054
 4849UDC     C253330  10.973   7.647  11.640  1.0445 -0.8408  0.5069
 4849UDC     C353331  11.050   7.744  11.725  0.7345 -0.1623 -0.6497
 4849UDC     C453332  11.182   7.692  11.788  0.2482  0.2554  0.5532
 4849UDC     C553333  11.230   7.793  11.892 -0.3260  0.4053  0.1216
 4849UDC     C653334  11.371   7.767  11.948 -0.0299 -0.8818 -0.6611
 4849UDC     C753335  11.409   7.846  12.076 -0.1104 -0.8954  0.6788
 4849UDC     C853336  11.539   7.789  12.131  0.0757 -0.5268  0.1760
 4849UDC     C953337  11.657   7.801  12.034 -0.8003 -0.9309 -0.1819
 4849UDC    C1053338  11.689   7.948  12.008 -0.0316 -0.1017 -0.0563
 4849UDC    C1153339  11.684   8.031  12.133  0.7155 -0.7080 -0.3977
 4850UDC     C153340  10.577  12.778   8.228  0.3022  0.8107  1.0965
 4850UDC     C253341  10.655  12.901   8.252  0.0103 -0.1146  1.0322
 4850UDC     C353342  10.805  12.868   8.269 -0.6831 -0.1690 -1.2492
 4850UDC     C453343  10.853  13.019   8.278 -0.2447  0.1897 -1.2361
 4850UDC     C553344  10.980  13.035   8.364 -1.0475  0.3415 -0.8546
 4850UDC     C653345  11.081  13.132   8.300  0.9144 -1.3528  0.0541
 4850UDC     C753346  11.215  13.145   8.374  0.4161  0.7314 -0.6730
 4850UDC     C853347  11.279  13.007   8.369  0.9860  0.0470  0.3604
 4850UDC     C953348  11.432  12.998   8.343  0.3699 -0.1858 -0.4833
 4850UDC    C1053349  11.496  12.884   8.262  0.1901 -1.5266 -0.5204
 4850UDC    C1153350  11.473  12.756   8.340 -0.0278  0.4872  0.0438
 4851UDC     C153351  18.676   5.984  11.380  0.8964 -0.0395 -1.0518
 4851UDC     C253352  18.778   6.069  11.299 -0.7113 -1.5071  0.4039
 4851UDC     C353353  18.711   6.165  11.189 -0.7022 -0.0134 -0.5870
 4851UDC     C453354  18.627   6.265  11.270  0.3323 -0.7766 -0.8735
 4851UDC     C553355  18.544   6.358  11.183 -1.0815  0.7131  0.4639
 4851UDC     C653356  18.408   6.289  11.140  0.4742 -0.6998 -0.8195
 4851UDC     C753357  18.317   6.381  11.059 -0.5178 -0.7055 -0.3304
 4851UDC     C853358  18.202   6.304  10.995  0.2149  1.0432 -0.7329
 4851UDC     C953359  18.220   6.304  10.843 -0.1159 -1.1085 -0.2267
 4851UDC    C1053360  18.091   6.268  10.765  0.4299  0.2977  0.2174
 4851UDC    C1153361  17.967   6.354  10.788 -0.2456 -0.0449 -0.6038
 4852UDC     C153362  14.994  19.325  11.984  0.2793 -0.1166  0.5252
 4852UDC     C253363  14.973  19.326  11.833 -0.7893 -0.1751  0.1690
 4852UDC     C353364  14.959  19.185  11.779  0.7741  0.7554  0.8238
 4852UDC     C453365  15.069  19.078  11.793  0.0981  0.4175 -0.5264
 4852UDC     C553366  15.196  19.095  11.720 -0.7304  0.4241 -0.6389
 4852UDC     C653367  15.282  18.966  11.713  0.1732 -0.6965 -0.4620
 4852UDC     C753368  15.298  18.883  11.842  0.4740 -0.3403 -0.6198
 4852UDC     C853369  15.430  18.922  11.906  0.5726  0.2673 -0.1852
 4852UDC     C953370  15.406  18.961  12.052  0.2993  0.7732 -0.2853
 4852UDC    C1053371  15.539  18.979  12.133  0.2695  0.0874 -0.1298
 4852UDC    C1153372  15.604  19.119  12.141  0.9261 -0.8457  0.0119
 4853UDC     C153373  19.964   7.447  18.163 -0.3841  0.0816  0.3196
 4853UDC     C253374  19.813   7.441  18.168 -0.0195 -0.4206  0.7379
 4853UDC     C353375  19.780   7.472  18.316  1.0940 -0.1570  0.1677
 4853UDC     C453376  19.635   7.423  18.355 -0.7253  0.9560  0.7143
 4853UDC     C553377  19.558   7.471  18.473 -0.0842 -0.4529 -0.0614
 4853UDC     C653378  19.428   7.406  18.500  1.0895 -1.4573  0.7067
 4853UDC     C753379  19.316   7.464  18.408  0.3407 -0.4153  0.2342
 4853UDC     C853380  19.255   7.591  18.467  0.3641  0.5339 -0.0624
 4853UDC     C953381  19.227   7.578  18.618 -0.0122 -0.1713  0.5506
 4853UDC    C1053382  19.088   7.530  18.661 -0.8097  1.0217  0.7539
 4853UDC    C1153383  19.075   7.571  18.808  0.8674  0.6129 -0.1303
 4854UDC     C153384  18.340  11.387  11.750 -1.1115 -0.7674 -0.0520
 4854UDC     C253385  18.465  11.305  11.784 -0.7145 -0.1943  1.1372
 4854UDC     C353386  18.428  11.159  11.794 -0.8105  0.1537  0.5422
 4854UDC     C453387  18.370  11.094  11.669  0.3465 -0.1091 -0.1607
 4854UDC     C553388  18.405  10.946  11.635  0.0486 -0.4183  0.0950
 4854UDC     C653389  18.305  10.860  11.553 -0.8974  0.5555 -1.4789
 4854UDC     C753390  18.266  10.930  11.424 -1.0401 -0.2902  1.2525
 4854UDC     C853391  18.249  10.823  11.313 -0.3412 -0.0963 -0.2426
 4854UDC     C953392  18.261  10.888  11.168 -0.7114 -0.2796 -0.5094
 4854UDC    C1053393  18.247  10.795  11.052  0.6302 -0.6999 -0.2264
 4854UDC    C1153394  18.264  10.898  10.938 -0.5034  0.0617  0.7918
 4855UDC     C153395  11.759  10.381  13.519 -0.8146  1.0275  0.3697
 4855UDC     C253396  11.670  10.378  13.639 -0.1944  0.1430  0.1749
 4855UDC     C353397  11.747  10.391  13.766  0.8617 -0.2698  0.4426
 4855UDC     C453398  11.763  10.254  13.840  0.1609 -1.0616  0.6575
 4855UDC     C553399  11.900  10.243  13.909 -0.2528  1.2694 -0.4154
 4855UDC     C653400  11.896  10.125  14.007 -0.5969 -0.8959  0.9560
 4855UDC     C753401  11.922  10.179  14.144  0.3359 -0.5413 -0.6172
 4855UDC     C853402  11.803  10.276  14.190  0.5923  0.1962 -0.0517
 4855UDC     C953403  11.856  10.397  14.263 -0.3362 -0.6914 -0.5606
 4855UDC    C1053404  11.743  10.496  14.288  1.0792 -0.4701  0.2437
 4855UDC    C1153405  11.701  10.557  14.150 -1.9230 -0.2911 -1.5036
 4856UDC     C153406   8.433   5.135  11.761 -0.4308 -0.8188 -0.4997
 4856UDC     C253407   8.558   5.182  11.831  0.1007 -0.2560 -0.4638
 4856UDC     C353408   8.566   5.138  11.976 -1.2198 -0.1464  1.5502
 4856UDC     C453409   8.480   5.215  12.075  0.1076 -0.0209 -0.4163
 4856UDC     C553410   8.569   5.306  12.152 -0.1242 -0.3576 -0.6571
 4856UDC     C653411   8.634   5.243  12.274 -0.0203 -0.3436  0.5138
 4856UDC     C753412   8.751   5.342  12.309 -0.4356 -0.0299 -0.3460
 4856UDC     C853413   8.879   5.283  12.382 -0.1009 -0.3768 -0.3672
 4856UDC     C953414   8.938   5.168  12.299 -0.8928  0.2323 -0.0478
 4856UDC    C1053415   9.048   5.083  12.372 -0.7627 -0.2933 -0.2257
 4856UDC    C1153416   8.991   5.002  12.489 -0.0020  0.1098 -0.9678
 4857UDC     C153417  14.061   8.510   4.379  1.0093  0.0862  0.4741
 4857UDC     C253418  14.085   8.455   4.232 -0.4475 -0.3864  0.8446
 4857UDC     C353419  14.132   8.306   4.223 -0.2278 -0.5828  1.0959
 4857UDC     C453420  14.017   8.210   4.206  0.5136 -0.1180 -0.3352
 4857UDC     C553421  14.070   8.066   4.236  0.3990 -0.3496  0.0877
 4857UDC     C653422  14.174   8.018   4.131  0.9617 -0.3392 -0.4582
 4857UDC     C753423  14.269   7.914   4.182  0.0023 -0.1689 -0.1933
 4857UDC     C853424  14.348   7.990   4.285  0.1286 -0.1113 -0.8519
 4857UDC     C953425  14.457   7.904   4.363  0.8372  0.0338  0.6439
 4857UDC    C1053426  14.426   7.758   4.393 -0.3456  0.4540  1.1010
 4857UDC    C1153427  14.503   7.712   4.523  0.1912  0.1049 -0.3324
 4858UDC     C153428   3.074  15.039  18.592 -0.1001 -0.7615 -0.4144
 4858UDC     C253429   3.167  14.951  18.502 -0.7195  0.6318 -0.2125
 4858UDC     C353430   3.276  15.047  18.445  0.4620  0.9339 -0.5705
 4858UDC     C453431   3.365  15.107  18.559  0.5626  0.7821  0.2274
 4858UDC     C553432   3.501  15.151  18.508  0.8981  1.1746 -0.3514
 4858UDC     C653433   3.510  15.284  18.432 -1.0596  0.0139  0.4225
 4858UDC     C753434   3.661  15.302  18.388 -0.0924 -0.2153  0.8486
 4858UDC     C853435   3.680  15.249  18.235  0.7132 -0.2206 -0.3290
 4858UDC     C953436   3.819  15.272  18.179 -0.6161 -0.5493 -0.5149
 4858UDC    C1053437   3.947  15.198  18.236 -0.1464  1.5803 -0.4036
 4858UDC    C1153438   4.080  15.235  18.187 -0.1323  0.5706  1.0413
 4859UDC     C153439   8.290  12.925  12.623 -0.0042  0.3935  0.6177
 4859UDC     C253440   8.205  12.848  12.729  0.5958 -0.7760 -0.1638
 4859UDC     C353441   8.216  12.692  12.746  0.2750  0.0510  0.2956
 4859UDC     C453442   8.173  12.652  12.891  0.0571 -0.0371  1.2533
 4859UDC     C553443   8.188  12.499  12.921 -1.0545 -0.4326  0.6786
 4859UDC     C653444   8.113  12.382  12.864 -0.1979  0.7835 -0.6877
 4859UDC     C753445   8.212  12.260  12.865  0.6048 -0.0252  0.7773
 4859UDC     C853446   8.174  12.131  12.798  1.4172 -0.7133 -0.2938
 4859UDC     C953447   8.049  12.129  12.712 -0.5310  0.0511  0.1830
 4859UDC    C1053448   8.058  11.996  12.637  0.7151  0.2887  0.8764
 4859UDC    C1153449   8.013  12.003  12.483  0.0446 -0.1496 -0.5502
 4860UDC     C153450   5.494  18.449  14.075 -0.1983 -0.3594  0.3988
 4860UDC     C253451   5.618  18.359  14.084 -0.2302  0.8222 -0.2106
 4860UDC     C353452   5.674  18.322  13.941  0.8628 -0.2579  0.2379
 4860UDC     C453453   5.800  18.236  13.958  0.0560 -0.2733 -0.2451
 4860UDC     C553454   5.902  18.235  13.843  0.6920 -0.9251  0.5535
 4860UDC     C653455   5.825  18.185  13.728 -0.5504  0.6898 -0.0746
 4860UDC     C753456   5.878  18.260  13.601  0.3988  0.8105  0.1374
 4860UDC     C853457   6.004  18.206  13.543 -0.9259 -0.3512 -0.2054
 4860UDC     C953458   5.984  18.073  13.473 -1.1440 -0.6543  0.6616
 4860UDC    C1053459   6.103  18.049  13.387 -0.9204 -0.0562 -0.6354
 4860UDC    C1153460   6.080  17.994  13.250  1.1607  0.4053  0.1768
 4861UDC     C153461   5.488  11.214   7.233  0.8672 -0.1290  0.1839
 4861UDC     C253462   5.391  11.196   7.358 -0.0820  0.3116  0.7648
 4861UDC     C353463   5.431  11.112   7.481 -0.3436 -0.0330  1.3280
 4861UDC     C453464   5.353  11.125   7.607  0.5996  0.4004  0.3741
 4861UDC     C553465   5.401  11.057   7.736 -0.1910 -0.5548  0.2213
 4861UDC     C653466   5.336  11.101   7.864  1.0004  0.1842  0.0405
 4861UDC     C753467   5.179  11.105   7.871  0.1681  0.1503 -0.3559
 4861UDC     C853468   5.138  11.232   7.947  0.5610  0.0818  0.0216
 4861UDC     C953469   4.997  11.204   8.010 -0.9009 -0.0167  0.6199
 4861UDC    C1053470   4.864  11.197   7.925  0.1122  1.1153 -0.6885
 4861UDC    C1153471   4.815  11.310   7.831 -0.2155  0.7847  0.0297
 4862UDC     C153472  16.503   7.479   7.157  0.1139 -0.2518  0.0785
 4862UDC     C253473  16.586   7.349   7.187  1.7369 -0.1087 -0.3090
 4862UDC     C353474  16.505   7.232   7.239 -0.5827 -0.0903  0.3196
 4862UDC     C453475  16.436   7.252   7.373 -0.4750 -0.9791  0.4059
 4862UDC     C553476  16.330   7.142   7.399  0.9433 -0.7236  0.1182
 4862UDC     C653477  16.249   7.165   7.529 -0.6513 -0.3738  0.3335
 4862UDC     C753478  16.324   7.231   7.644 -0.1255 -0.6837 -0.1314
 4862UDC     C853479  16.227   7.249   7.763  0.5682  0.8704 -0.7343
 4862UDC     C953480  16.141   7.123   7.808 -0.4845 -0.8094  0.0267
 4862UDC    C1053481  16.073   7.139   7.941 -0.4859 -0.6638  0.8223
 4862UDC    C1153482  15.980   7.019   7.969 -0.5131 -0.3815 -0.8959
 4863UDC     C153483  13.711   3.820  17.011 -0.4288  0.1974  0.3128
 4863UDC     C253484  13.638   3.887  17.130  0.8436  0.1319 -0.2212
 4863UDC     C353485  13.565   3.771  17.203  0.3883  0.2526  0.7974
 4863UDC     C453486  13.461   3.812  17.315 -0.7094  1.0109  0.5431
 4863UDC     C553487  13.372   3.690  17.343 -0.1094  0.2171  0.2101
 4863UDC     C653488  13.445   3.561  17.382 -0.4417 -0.7227  0.3615
 4863UDC     C753489  13.363   3.442  17.420 -0.5078 -0.7819  0.7012
 4863UDC     C853490  13.260   3.465  17.530 -0.0363 -0.2539 -0.9020
 4863UDC     C953491  13.315   3.430  17.673 -0.0386 -1.7105 -0.5698
 4863UDC    C1053492  13.196   3.457  17.773 -0.1045  0.1532  0.2693
 4863UDC    C1153493  13.205   3.585  17.851  0.5420  0.2540  0.0656
 4864UDC     C153494   9.538  15.454   7.883  0.1279 -0.6132 -0.0106
 4864UDC     C253495   9.552  15.410   7.738  0.3216  0.2710  0.8757
 4864UDC     C353496   9.429  15.431   7.635  0.9996  0.5245 -0.3829
 4864UDC     C453497   9.378  15.373   7.497 -0.5105 -0.5204  0.7313
 4864UDC     C553498   9.471  15.400   7.377 -0.3449  0.1042  0.9450
 4864UDC     C653499   9.424  15.326   7.247  0.4017  0.4531 -0.2627
 4864UDC     C753500   9.471  15.375   7.112 -1.2302  0.7913  0.7270
 4864UDC     C853501   9.508  15.527   7.088 -0.9138  1.2178 -0.0420
 4864UDC     C953502   9.455  15.578   6.953 -0.5477 -0.2304 -0.3697
 4864UDC    C1053503   9.305  15.573   6.961  0.3898  1.0262 -0.4712
 4864UDC    C1153504   9.236  15.657   7.064  0.1955 -0.1364 -0.6180
 4865UDC     C153505  17.960  14.340  16.529  0.0429  0.9990 -0.6825
 4865UDC     C253506  18.080  14.405  16.459 -1.1156 -0.3942 -0.3850
 4865UDC     C353507  18.201  14.328  16.520 -0.4483 -0.0013  0.6270
 4865UDC     C453508  18.322  14.360  16.430 -0.9284 -0.6954 -0.0477
 4865UDC     C553509  18.265  14.371  16.285 -0.7705 -0.3249  0.8596
 4865UDC     C653510  18.366  14.341  16.168  0.3610 -0.4850  0.0038
 4865UDC     C753511  18.296  14.373  16.034 -0.5858  0.4247  0.5149
 4865UDC     C853512  18.411  14.395  15.928  0.8812  0.1377 -0.2405
 4865UDC     C953513  18.353  14.424  15.789 -0.0920  1.8848  1.4591
 4865UDC    C1053514  18.447  14.438  15.673  0.6977  1.0714  0.4842
 4865UDC    C1153515  18.534  14.567  15.676 -0.3436  0.2835  1.2968
 4866UDC     C153516   8.289  16.058   4.148 -0.0214  1.5345  1.2420
 4866UDC     C253517   8.152  16.119   4.183  0.3031  0.3250  0.4574
 4866UDC     C353518   8.078  16.186   4.056 -0.6497 -0.2492 -0.9484
 4866UDC     C453519   7.925  16.191   4.082 -0.8003 -0.2617 -0.1438
 4866UDC     C553520   7.841  16.248   3.960 -0.5631  0.5794 -0.8808
 4866UDC     C653521   7.862  16.400   3.937 -0.9648 -0.0853 -0.6414
 4866UDC     C753522   7.756  16.470   3.846  0.6835 -0.1932  0.0150
 4866UDC     C853523   7.777  16.622   3.821 -0.5519  0.8894 -0.7615
 4866UDC     C953524   7.840  16.691   3.946  0.7724  0.0412  2.1090
 4866UDC    C1053525   7.934  16.816   3.957 -0.1064 -0.6064  0.4188
 4866UDC    C1153526   8.082  16.795   3.919 -0.1442 -0.5406 -0.3350
 4867UDC     C153527  17.342   4.871   4.193  0.4466  0.5102 -0.4687
 4867UDC     C253528  17.251   4.742   4.178  0.2594  0.4798  0.8903
 4867UDC     C353529  17.299   4.641   4.285  0.6666  0.5287  0.1278
 4867UDC     C453530  17.213   4.511   4.254  0.0122 -0.8310  0.5522
 4867UDC     C553531  17.250   4.390   4.350 -0.0024  0.1153 -0.1046
 4867UDC     C653532  17.194   4.265   4.288  0.6213 -1.3993 -0.0279
 4867UDC     C753533  17.229   4.122   4.333 -0.5017 -0.2898 -0.3875
 4867UDC     C853534  17.228   4.100   4.486  0.2230  0.3089  0.1138
 4867UDC     C953535  17.264   3.956   4.528 -0.6836 -0.0401  0.0503
 4867UDC    C1053536  17.384   3.942   4.620 -0.1457 -0.3485  0.0633
 4867UDC    C1153537  17.373   3.802   4.687  1.2179 -0.6097 -0.9225
 4868UDC     C153538   1.249  14.253  13.374  0.3691 -0.0400 -0.4476
 4868UDC     C253539   1.181  14.387  13.399 -1.1512 -0.8561  0.7207
 4868UDC     C353540   1.160  14.481  13.271  0.7742 -0.8027 -0.0482
 4868UDC     C453541   1.269  14.590  13.249 -1.3313 -1.0505 -0.6443
 4868UDC     C553542   1.286  14.703  13.354  0.8547  0.3679 -0.0431
 4868UDC     C653543   1.405  14.774  13.287 -0.2930  0.2363 -0.1749
 4868UDC     C753544   1.388  14.886  13.186 -0.4890 -0.3906  0.4690
 4868UDC     C853545   1.283  15.001  13.211 -0.2600 -0.5688 -0.3150
 4868UDC     C953546   1.268  15.109  13.099 -0.3596  0.5927 -0.3522
 4868UDC    C1053547   1.223  15.040  12.969  0.2010 -0.7736  0.5881
 4868UDC    C1153548   1.143  15.102  12.853 -0.3552 -0.8691  1.0032
 4869UDC     C153549   7.373  13.109   5.427 -0.5077 -0.1234  0.2461
 4869UDC     C253550   7.460  13.082   5.557 -0.2812  0.6385  0.2870
 4869UDC     C353551   7.477  13.217   5.634 -0.7478 -0.1078 -0.7681
 4869UDC     C453552   7.516  13.219   5.782 -0.5821  0.7021  0.2596
 4869UDC     C553553   7.503  13.361   5.840  1.0082 -0.3204 -0.3131
 4869UDC     C653554   7.484  13.347   5.995  0.9492  0.9974  0.5154
 4869UDC     C753555   7.442  13.499   6.047  0.6373  0.3261  0.5062
 4869UDC     C853556   7.524  13.550   6.162  0.2556 -0.5461  0.3375
 4869UDC     C953557   7.466  13.501   6.295 -0.7660 -0.3364 -0.4818
 4869UDC    C1053558   7.383  13.586   6.382  0.1018 -0.6825 -0.1435
 4869UDC    C1153559   7.247  13.616   6.338 -0.2079  0.0079  0.5520
 4870UDC     C153560   8.640  15.365  16.556  0.5551 -0.4446 -0.5934
 4870UDC     C253561   8.728  15.469  16.638 -0.7231  0.2680 -0.3545
 4870UDC     C353562   8.873  15.407  16.669 -0.5810  0.7269 -1.2582
 4870UDC     C453563   8.858  15.261  16.721 -0.4921  0.7334 -0.3803
 4870UDC     C553564   8.987  15.195  16.779  1.1707  0.2895 -0.5565
 4870UDC     C653565   9.053  15.089  16.696 -0.1670 -0.2424  0.4732
 4870UDC     C753566   9.201  15.049  16.733  0.3753  0.4231 -0.3387
 4870UDC     C853567   9.267  15.178  16.783  0.1400  0.1657 -0.3914
 4870UDC     C953568   9.419  15.163  16.760  0.1905 -0.7193  0.3186
 4870UDC    C1053569   9.508  15.250  16.855 -0.0711  1.5191 -0.1111
 4870UDC    C1153570   9.657  15.216  16.833 -0.1023  0.0719  0.1377
 4871UDC     C153571   6.123   7.771   5.372 -0.2524 -0.7261  0.8571
 4871UDC     C253572   6.186   7.843   5.496 -0.9695 -0.6321 -1.0777
 4871UDC     C353573   6.181   7.995   5.519  0.1049 -0.2255  0.1202
 4871UDC     C453574   6.250   8.045   5.647 -0.2102 -1.1055  0.1149
 4871UDC     C553575   6.397   8.080   5.630  0.1171 -0.0670  0.4673
 4871UDC     C653576   6.444   8.142   5.762  0.7067 -0.4454  0.5480
 4871UDC     C753577   6.595   8.156   5.785  0.5534  0.5568 -0.4647
 4871UDC     C853578   6.623   8.225   5.922  0.8976  0.2961  0.5661
 4871UDC     C953579   6.771   8.246   5.944  0.0369 -0.4750  0.3668
 4871UDC    C1053580   6.838   8.119   5.989 -0.2165 -0.6298 -0.8387
 4871UDC    C1153581   6.987   8.127   6.027 -0.7895  0.0401  0.3345
 4872UDC     C153582   5.141   7.238  13.398 -0.1720 -0.3151 -0.4497
 4872UDC     C253583   5.216   7.280  13.531  0.6963 -0.0728 -0.2245
 4872UDC     C353584   5.222   7.177  13.646 -1.0957  0.1550  0.4657
 4872UDC     C453585   5.312   7.224  13.767 -0.3224  0.6209  1.1480
 4872UDC     C553586   5.240   7.288  13.886 -0.2915 -0.4719 -0.2127
 4872UDC     C653587   5.334   7.330  14.002 -0.3071  0.7790 -0.5055
 4872UDC     C753588   5.420   7.455  13.956  0.1961  0.4963 -0.9033
 4872UDC     C853589   5.521   7.482  14.071  0.2333  1.1824 -0.0307
 4872UDC     C953590   5.603   7.610  14.071  1.6640 -0.4352  0.5109
 4872UDC    C1053591   5.713   7.627  14.175  0.4398  0.1563  0.1727
 4872UDC    C1153592   5.738   7.534  14.293 -0.3907  1.1348  0.6529
 4873UDC     C153593  11.384  15.419  14.394  0.5840  0.8087 -0.7509
 4873UDC     C253594  11.310  15.305  14.477 -0.0303 -0.2740 -0.4056
 4873UDC     C353595  11.269  15.179  14.395 -0.2940 -0.3258  0.1489
 4873UDC     C453596  11.132  15.195  14.328 -0.2882  0.5195 -0.8102
 4873UDC     C553597  11.117  15.080  14.235  0.3795 -1.3938  0.2323
 4873UDC     C653598  10.968  15.056  14.200 -0.9700 -0.8609 -0.2920
 4873UDC     C753599  10.908  15.184  14.131 -0.4915 -0.3380 -0.2475
 4873UDC     C853600  10.764  15.191  14.083  0.0200  0.7425 -0.6352
 4873UDC     C953601  10.646  15.253  14.161 -0.4208 -0.5372  0.6613
 4873UDC    C1053602  10.514  15.223  14.087  0.0859  0.9081 -0.2363
 4873UDC    C1153603  10.530  15.281  13.950 -0.2427  0.3105 -0.5654
 4874UDC     C153604   1.962  15.247   8.603  0.2880 -0.5495 -0.1485
 4874UDC     C253605   1.885  15.319   8.490 -0.7312  0.2990  0.2203
 4874UDC     C353606   1.777  15.408   8.546 -1.2737  1.2639 -1.1111
 4874UDC     C453607   1.687  15.463   8.438 -0.5544  0.1647 -0.2906
 4874UDC     C553608   1.595  15.353   8.385 -0.5656 -1.4914 -0.3881
 4874UDC     C653609   1.519  15.303   8.510  0.0866  0.6686  0.2490
 4874UDC     C753610   1.376  15.346   8.515  0.1038 -0.5871 -1.4589
 4874UDC     C853611   1.325  15.301   8.653 -0.2841  0.5427 -0.6454
 4874UDC     C953612   1.173  15.338   8.661 -0.5947  0.1654 -0.5302
 4874UDC    C1053613   1.084  15.224   8.589 -0.4907  0.3245 -0.1822
 4874UDC    C1153614   0.952  15.286   8.602  0.7705  1.2055 -0.6642
 4875UDC     C153615  19.310   6.989  17.929  0.2811  0.7318 -0.1993
 4875UDC     C253616  19.209   6.872  17.958  0.1009  0.9366  0.3114
 4875UDC     C353617  19.074   6.877  17.889  1.3373  0.2089  0.3560
 4875UDC     C453618  18.976   6.755  17.912 -0.0440  0.0366  0.6147
 4875UDC     C553619  18.836   6.775  17.835  0.5703 -0.8370  0.1824
 4875UDC     C653620  18.729   6.659  17.844  1.0426  0.2233  1.0206
 4875UDC     C753621  18.638   6.637  17.960 -0.5936  1.4278 -0.8433
 4875UDC     C853622  18.521   6.544  17.947  0.4563 -0.1372  0.5789
 4875UDC     C953623  18.440   6.512  18.075 -0.0886 -0.1754  0.4331
 4875UDC    C1053624  18.511   6.479  18.206  0.4911  0.1202 -0.2584
 4875UDC    C1153625  18.397   6.491  18.305 -0.1678  0.3384  0.2668
 4876UDC     C153626  19.497  14.758   2.470 -0.0775  0.0568  0.6421
 4876UDC     C253627  19.573  14.808   2.347  0.6143 -0.5784 -0.1881
 4876UDC     C353628  19.549  14.965   2.324  1.5493  0.0487 -0.1638
 4876UDC     C453629  19.601  15.032   2.196 -0.1287  0.0201  0.1241
 4876UDC     C553630  19.758  15.030   2.181  0.9061 -0.5196 -0.3357
 4876UDC     C653631  19.798  14.978   2.038 -0.0493  0.4058 -0.4532
 4876UDC     C753632  19.761  14.828   2.026 -0.1618 -0.6469 -1.9174
 4876UDC     C853633  19.890  14.772   1.968 -1.2090  0.4748  0.7713
 4876UDC     C953634  19.866  14.650   1.885  0.6594  0.7049  0.9837
 4876UDC    C1053635  19.797  14.692   1.759 -0.6048  0.1177 -0.3414
 4876UDC    C1153636  19.896  14.725   1.643 -0.3010  0.4265  0.2464
 4877UDC     C153637   2.570   7.766  10.950 -0.1144 -1.1396 -0.0835
 4877UDC     C253638   2.588   7.886  11.039  0.7022 -0.2364  0.1118
 4877UDC     C353639   2.558   7.848  11.189 -0.2154  0.7674  2.0505
 4877UDC     C453640   2.549   7.975  11.276  0.5036  0.4881 -0.1999
 4877UDC     C553641   2.626   8.083  11.205  0.1467 -0.0148 -0.4541
 4877UDC     C653642   2.571   8.222  11.242  1.3386  0.8193  0.7506
 4877UDC     C753643   2.511   8.234  11.384  0.6620 -0.8778 -0.6456
 4877UDC     C853644   2.638   8.289  11.454  0.4868  0.1194 -0.0258
 4877UDC     C953645   2.636   8.363  11.590  0.1007  0.3806  0.1124
 4877UDC    C1053646   2.589   8.294  11.716  0.7721  0.7538  0.0234
 4877UDC    C1153647   2.665   8.316  11.846  0.6924 -0.0789  0.8332
 4878UDC     C153648  13.498  10.992  14.118  1.2499 -0.8179 -0.4682
 4878UDC     C253649  13.360  11.025  14.190  0.3775  0.6456  0.5578
 4878UDC     C353650  13.376  11.053  14.338  0.4080  0.0625  0.4095
 4878UDC     C453651  13.243  11.087  14.410 -0.0453  0.8205 -0.4303
 4878UDC     C553652  13.231  11.242  14.400  1.1741 -0.1356  0.3140
 4878UDC     C653653  13.344  11.324  14.460 -0.0159  0.0411 -0.3126
 4878UDC     C753654  13.320  11.482  14.469 -0.6441 -0.7204 -0.5756
 4878UDC     C853655  13.442  11.560  14.520 -0.0948 -0.3140  1.3259
 4878UDC     C953656  13.433  11.702  14.574  0.4207  0.6781  0.9318
 4878UDC    C1053657  13.372  11.705  14.714  0.0503 -0.4098  0.3097
 4878UDC    C1153658  13.391  11.838  14.785 -0.4766  0.1062  0.2301
 4879UDC     C153659  12.421  16.826  16.670 -0.1406  0.3864  1.3183
 4879UDC     C253660  12.351  16.724  16.770  1.3515 -0.9459  0.2014
 4879UDC     C353661  12.390  16.761  16.914  0.4083  1.1502 -1.5218
 4879UDC     C453662  12.348  16.669  17.032  0.1026  0.0740 -0.2071
 4879UDC     C553663  12.400  16.712  17.168 -0.2891  0.5738 -0.4669
 4879UDC     C653664  12.511  16.621  17.213 -0.1381  0.0363  0.1292
 4879UDC     C753665  12.612  16.691  17.303 -1.0560  0.0823  0.3487
 4879UDC     C853666  12.739  16.747  17.225  0.4316  0.5233 -0.3542
 4879UDC     C953667  12.859  16.788  17.315  0.6570 -1.1710  0.6211
 4879UDC    C1053668  12.939  16.670  17.382 -0.9478 -0.2164  0.1803
 4879UDC    C1153669  13.014  16.590  17.262  1.0227 -0.6540 -0.8923
 4880UDC     C153670  13.652   9.742  18.370 -0.2105  0.0851 -0.6650
 4880UDC     C253671  13.707   9.652  18.266  0.0223  0.9180 -0.0392
 4880UDC     C353672  13.594   9.633  18.166  0.3477  0.0081 -0.6060
 4880UDC     C453673  13.621   9.534  18.055  0.3681  0.2993  0.2431
 4880UDC     C553674  13.511   9.528  17.948  1.1893 -0.5119  0.0962
 4880UDC     C653675  13.533   9.455  17.811 -0.0789 -1.2453  0.7108
 4880UDC     C753676  13.660   9.506  17.738 -0.2194  0.5988  0.5905
 4880UDC     C853677  13.679   9.653  17.690  0.3116 -0.0555 -0.1098
 4880UDC     C953678  13.827   9.685  17.643  0.0366  0.6769 -0.4243
 4880UDC    C1053679  13.844   9.836  17.609  0.8996  0.8566  0.1053
 4880UDC    C1153680  13.989   9.885  17.604  1.0448 -0.0692 -0.1314
 4881UDC     C153681  12.728  17.318  14.318  1.2693  0.4545  0.0996
 4881UDC     C253682  12.736  17.243  14.180  0.2026 -0.0774  0.2163
 4881UDC     C353683  12.752  17.352  14.070 -0.7977  0.6586  0.2491
 4881UDC     C453684  12.746  17.311  13.919 -0.3885  0.1351 -0.7110
 4881UDC     C553685  12.605  17.247  13.886 -0.5921  0.6402  0.0769
 4881UDC     C653686  12.499  17.358  13.885  0.0745 -0.6308 -1.2235
 4881UDC     C753687  12.551  17.475  13.798  0.2015  0.5867  0.0329
 4881UDC     C853688  12.514  17.609  13.856  0.7730 -1.3419  0.7353
 4881UDC     C953689  12.563  17.745  13.798 -0.3206 -0.6488  0.4505
 4881UDC    C1053690  12.526  17.766  13.656  1.1907 -1.0161  0.0037
 4881UDC    C1153691  12.385  17.740  13.605 -0.2034 -0.6991  0.2044
 4882UDC     C153692   4.943  17.425   0.947 -0.6942  0.0314  0.0247
 4882UDC     C253693   4.793  17.384   0.921  0.8784  0.6990  0.8850
 4882UDC     C353694   4.718  17.472   0.821 -0.0300  0.2644  0.8093
 4882UDC     C453695   4.566  17.468   0.818 -0.7481 -0.0216 -1.1443
 4882UDC     C553696   4.500  17.574   0.733  1.2384 -0.9546 -0.8473
 4882UDC     C653697   4.382  17.543   0.638  0.1730  0.5707 -0.2859
 4882UDC     C753698   4.418  17.487   0.496  0.3416 -0.4171 -0.9710
 4882UDC     C853699   4.470  17.611   0.412  0.4352 -0.4346  0.4694
 4882UDC     C953700   4.357  17.717   0.419  1.3062 -0.2436 -0.5479
 4882UDC    C1053701   4.386  17.851   0.346 -0.8051  0.3591  0.1259
 4882UDC    C1153702   4.375  17.828   0.194  0.3225  0.1065 -1.2598
 4883UDC     C153703  11.070   1.784  12.799 -0.2687  0.1550  0.9224
 4883UDC     C253704  11.211   1.740  12.823 -0.3934 -0.8800  0.2248
 4883UDC     C353705  11.276   1.779  12.956 -0.4830 -0.1158  0.0938
 4883UDC     C453706  11.420   1.725  12.964 -0.0722 -0.1835 -0.2855
 4883UDC     C553707  11.491   1.761  13.097 -0.2574  0.4573  0.1414
 4883UDC     C653708  11.426   1.697  13.230  0.0413 -0.6169  0.3475
 4883UDC     C753709  11.465   1.737  13.373 -1.1717  0.6984 -0.2456
 4883UDC     C853710  11.547   1.633  13.458  0.1433 -0.0076  0.4657
 4883UDC     C953711  11.663   1.595  13.369  0.8350  0.0397  0.7896
 4883UDC    C1053712  11.784   1.521  13.426  0.1494  1.4151  0.0676
 4883UDC    C1153713  11.748   1.380  13.490  0.4120  0.8776 -1.3057
 4884UDC     C153714   2.781   4.890   9.287  0.7587  0.4809 -0.4602
 4884UDC     C253715   2.675   4.931   9.188  0.3480  0.1323  0.1248
 4884UDC     C353716   2.697   5.057   9.099  0.1366 -1.0537  0.4397
 4884UDC     C453717   2.577   5.123   9.021  0.0739  0.5216 -0.4954
 4884UDC     C553718   2.442   5.068   9.069  0.2028 -0.2648  1.0366
 4884UDC     C653719   2.339   5.171   9.024  1.1924  1.3169 -0.1694
 4884UDC     C753720   2.191   5.134   9.031  0.1497 -0.5143 -0.1331
 4884UDC     C853721   2.156   5.010   8.936  0.4918  1.2007 -0.1368
 4884UDC     C953722   2.010   4.956   8.948 -0.9532 -0.7340  0.3531
 4884UDC    C1053723   1.990   4.940   9.096  0.1439  0.6941 -0.0335
 4884UDC    C1153724   1.993   4.796   9.147 -0.0635  0.0103 -0.6346
 4885UDC     C153725  13.581  15.476  11.874  1.4618  0.1537  0.4609
 4885UDC     C253726  13.573  15.384  11.998 -0.5081 -0.1525  0.5291
 4885UDC     C353727  13.528  15.432  12.136  0.4293  0.5585 -0.6818
 4885UDC     C453728  13.527  15.333  12.256 -0.4793 -0.6103  0.1390
 4885UDC     C553729  13.430  15.370  12.372 -1.1442  0.4211  0.4768
 4885UDC     C653730  13.365  15.238  12.411 -0.7477  0.0322  0.3618
 4885UDC     C753731  13.447  15.123  12.481  0.3296 -0.3591 -0.5701
 4885UDC     C853732  13.437  15.141  12.632  0.1181 -0.3158 -0.4190
 4885UDC     C953733  13.332  15.049  12.705 -0.0133 -0.1092 -0.3349
 4885UDC    C1053734  13.374  14.902  12.688 -0.5399  1.2636 -0.5510
 4885UDC    C1153735  13.310  14.795  12.770  1.0649  0.8397 -1.3405
 4886UDC     C153736   0.373   8.051  14.194 -0.0568 -0.1715  0.2579
 4886UDC     C253737   0.358   8.109  14.052 -0.7342 -0.7201  0.4227
 4886UDC     C353738   0.391   7.997  13.946  0.1423 -0.0210  0.5215
 4886UDC     C453739   0.522   7.913  13.973  0.9883  0.9619 -0.1555
 4886UDC     C553740   0.594   7.836  13.859  0.7379 -0.9516  0.2222
 4886UDC     C653741   0.691   7.716  13.877 -0.4424 -0.3316 -0.3899
 4886UDC     C753742   0.813   7.782  13.968  1.0528 -0.4096  0.2620
 4886UDC     C853743   0.880   7.924  13.922  0.0980  0.8913 -0.0486
 4886UDC     C953744   1.010   7.975  13.979 -0.3482 -0.6829  1.1319
 4886UDC    C1053745   1.059   8.098  13.892 -0.3725  0.1240  0.2769
 4886UDC    C1153746   1.030   8.072  13.739 -0.6025  0.7163  0.1822
 4887UDC     C153747  15.596   1.102   4.863  0.2051  0.1613 -0.9359
 4887UDC     C253748  15.667   1.054   4.993  0.5077  0.4270 -0.6248
 4887UDC     C353749  15.812   1.018   4.997 -0.9636 -0.2757 -0.1593
 4887UDC     C453750  15.863   0.920   5.110 -0.0839 -0.0290  0.4765
 4887UDC     C553751  15.938   0.790   5.072 -0.0363 -0.2752 -0.7408
 4887UDC     C653752  15.875   0.653   5.026 -0.0222 -0.3251  0.1764
 4887UDC     C753753  15.750   0.602   5.105  0.9396 -0.0894 -0.1280
 4887UDC     C853754  15.675   0.490   5.041 -1.0596  0.3405 -0.3982
 4887UDC     C953755  15.688   0.353   5.107  0.1210  1.2900 -0.2086
 4887UDC    C1053756  15.831   0.327   5.136 -0.4693  0.2437  1.1852
 4887UDC    C1153757  15.865   0.221   5.237  0.8922 -0.1311  0.6433
 4888UDC     C153758   2.028   0.780   4.156  0.4226  0.7455 -0.2153
 4888UDC     C253759   2.029   0.631   4.218  0.9594  0.2847  0.3065
 4888UDC     C353760   2.110   0.531   4.134 -0.7280  1.5824 -0.1932
 4888UDC     C453761   2.060   0.388   4.140  0.0440 -0.5543 -0.9048
 4888UDC     C553762   2.054   0.333   4.285  0.3998 -0.3123  0.3512
 4888UDC     C653763   1.998   0.190   4.309 -0.6983  0.0736 -0.8724
 4888UDC     C753764   1.854   0.177   4.279  1.1627 -0.1945  0.4553
 4888UDC     C853765   1.808   0.076   4.164 -0.3476  0.0444  0.2591
 4888UDC     C953766   1.898  -0.046   4.152  0.2609 -0.5347 -0.3618
 4888UDC    C1053767   1.836  -0.138   4.053 -0.0746 -0.4610  0.0533
 4888UDC    C1153768   1.911  -0.269   4.037  0.7295  0.4249  0.0433
 4889UDC     C153769   4.387   0.124   0.248  0.4846 -0.4423  0.2714
 4889UDC     C253770   4.380   0.032   0.369  0.0770 -1.0850  0.3216
 4889UDC     C353771   4.410   0.104   0.504 -0.3839  0.2102  0.1643
 4889UDC     C453772   4.421  -0.004   0.608 -0.4830  0.9218  0.2282
 4889UDC     C553773   4.285  -0.077   0.610 -0.3105  0.5214 -0.3417
 4889UDC     C653774   4.277  -0.190   0.716 -0.0982 -0.0865  0.1461
 4889UDC     C753775   4.130  -0.246   0.737  0.4438 -0.8679  1.2191
 4889UDC     C853776   4.130  -0.373   0.822  0.4129 -0.5075 -0.3299
 4889UDC     C953777   3.987  -0.408   0.874 -1.0429  1.2678  0.1217
 4889UDC    C1053778   3.911  -0.292   0.928  1.5733 -1.1399 -0.8253
 4889UDC    C1153779   3.756  -0.327   0.927 -0.6081 -0.6757  0.1127
 4890UDC     C153780  14.489  19.007   5.826  0.1405  0.5662  1.6662
 4890UDC     C253781  14.591  19.040   5.716 -0.7291 -0.3420 -0.2589
 4890UDC     C353782  14.580  19.175   5.648 -0.2314 -0.5186  0.4326
 4890UDC     C453783  14.433  19.208   5.650 -1.3211  0.4886  0.0753
 4890UDC     C553784  14.392  19.314   5.553  0.4759 -0.5899  0.9779
 4890UDC     C653785  14.368  19.285   5.401  1.5823 -0.0959 -0.8751
 4890UDC     C753786  14.292  19.151   5.369 -0.7690 -0.0549 -0.1513
 4890UDC     C853787  14.254  19.133   5.227 -1.2742 -0.5312  0.2887
 4890UDC     C953788  14.221  18.994   5.180 -0.0142  0.7482  0.8717
 4890UDC    C1053789  14.334  18.892   5.178 -1.1905  0.0901  0.1283
 4890UDC    C1153790  14.288  18.763   5.109 -0.7140  1.2664  0.9324
 4891UDC     C153791   4.648  14.322  13.761 -0.7487  0.6899  0.1404
 4891UDC     C253792   4.707  14.392  13.639  0.2824  1.2942  1.4761
 4891UDC     C353793   4.598  14.372  13.526 -1.7257  0.2508 -1.0877
 4891UDC     C453794   4.581  14.229  13.468  0.0130 -1.4827  0.3775
 4891UDC     C553795   4.506  14.230  13.339  0.0454  0.0344  0.9512
 4891UDC     C653796   4.524  14.092  13.268 -0.5212 -0.3054 -0.5824
 4891UDC     C753797   4.656  14.055  13.194  0.1601 -0.3886  0.0197
 4891UDC     C853798   4.689  13.957  13.081 -0.0567  0.5008 -1.0667
 4891UDC     C953799   4.802  13.987  12.985 -0.5733  1.7019  1.9256
 4891UDC    C1053800   4.766  14.109  12.890 -0.6494  0.7661 -0.3498
 4891UDC    C1153801   4.782  14.083  12.739  0.2997  0.2770 -0.0237
 4892UDC     C153802  13.258   6.225  14.975  1.1839 -0.5773 -0.7325
 4892UDC     C253803  13.407   6.255  14.933  0.2329  0.1930  0.0494
 4892UDC     C353804  13.457   6.372  15.015 -0.5407 -0.2088  0.0953
 4892UDC     C453805  13.456   6.328  15.162  0.0432 -0.2498 -0.0454
 4892UDC     C553806  13.490   6.439  15.260 -1.2026 -0.0571  0.5160
 4892UDC     C653807  13.450   6.417  15.409 -0.3119 -0.7414  0.3868
 4892UDC     C753808  13.477   6.543  15.493 -0.3444  1.6127  0.1346
 4892UDC     C853809  13.535   6.488  15.626 -0.8012  1.0233 -0.1569
 4892UDC     C953810  13.421   6.464  15.725 -0.2036 -0.2387  0.2016
 4892UDC    C1053811  13.467   6.357  15.826  0.9048 -0.7104 -0.1214
 4892UDC    C1153812  13.355   6.296  15.920 -0.5962  1.1508  0.1185
 4893UDC     C153813   0.909  14.720  17.439 -0.3259  0.0721 -0.5191
 4893UDC     C253814   0.904  14.724  17.287 -0.2427 -0.2377 -1.1601
 4893UDC     C353815   0.999  14.616  17.232 -0.0422 -0.0596 -0.4843
 4893UDC     C453816   0.983  14.575  17.085  0.5959  0.2301  0.4161
 4893UDC     C553817   1.077  14.461  17.027  0.7864 -0.1870 -0.5822
 4893UDC     C653818   1.066  14.429  16.882 -0.2710 -0.1803 -0.1672
 4893UDC     C753819   1.193  14.367  16.840  0.3060 -0.0095  0.0125
 4893UDC     C853820   1.290  14.489  16.819 -0.0681  0.0382 -0.0633
 4893UDC     C953821   1.440  14.473  16.782  0.4728  0.0343 -0.7182
 4893UDC    C1053822   1.466  14.416  16.645 -0.3395  0.0301  0.9291
 4893UDC    C1153823   1.609  14.364  16.614  0.3824  0.6723  0.6295
 4894UDC     C153824   4.737  15.065  12.107  1.5089 -0.1839  0.6489
 4894UDC     C253825   4.665  15.129  11.978 -0.7826  0.3237  0.6999
 4894UDC     C353826   4.516  15.175  12.002  0.0759  0.2290 -0.3173
 4894UDC     C453827   4.428  15.044  12.007 -0.5395 -0.4579  0.0162
 4894UDC     C553828   4.281  15.072  12.052  0.1632 -0.9186  0.1134
 4894UDC     C653829   4.208  14.948  12.111  0.6054 -0.1081  0.2197
 4894UDC     C753830   4.057  14.927  12.150  0.6164  0.0148 -0.2223
 4894UDC     C853831   3.965  14.866  12.041  1.0931 -0.6259 -0.6656
 4894UDC     C953832   3.838  14.780  12.085 -0.2765 -1.3471  0.4915
 4894UDC    C1053833   3.712  14.862  12.128  0.5321 -0.3238  1.0428
 4894UDC    C1153834   3.608  14.761  12.076 -0.0400 -0.0960 -0.6002
 4895UDC     C153835   8.237   0.048  10.567  0.0649 -0.1660  0.7740
 4895UDC     C253836   8.328   0.094  10.449  0.5917  0.0754 -0.0784
 4895UDC     C353837   8.366   0.246  10.465 -0.2730  0.3208  0.3798
 4895UDC     C453838   8.431   0.315  10.348  0.4673  0.6048  0.4489
 4895UDC     C553839   8.476   0.456  10.369 -0.0331 -0.2185 -0.0767
 4895UDC     C653840   8.605   0.496  10.292 -0.3611 -0.3540 -0.5778
 4895UDC     C753841   8.746   0.431  10.312 -0.5000 -0.0933  0.0564
 4895UDC     C853842   8.771   0.294  10.254 -1.0966  0.3662  0.6824
 4895UDC     C953843   8.853   0.198  10.345  0.6473  0.4356 -1.2274
 4895UDC    C1053844   9.000   0.239  10.348  0.3105 -0.2943  0.0215
 4895UDC    C1153845   9.082   0.169  10.460 -0.5424 -0.6921  0.4079
 4896UDC     C153846   2.442  14.692   7.242  0.0998  0.8311  0.5720
 4896UDC     C253847   2.511  14.832   7.259 -0.0068  0.5773 -0.7521
 4896UDC     C353848   2.650  14.828   7.196 -0.2034  0.4965  0.3457
 4896UDC     C453849   2.732  14.961   7.204  0.2447  0.2353 -0.4238
 4896UDC     C553850   2.729  15.058   7.330  0.0920  0.8890  1.5202
 4896UDC     C653851   2.700  15.205   7.285  0.8020  0.9582 -0.8096
 4896UDC     C753852   2.583  15.216   7.183 -0.1415  0.1101  0.3795
 4896UDC     C853853   2.555  15.363   7.159 -0.0138 -0.3593 -0.8631
 4896UDC     C953854   2.666  15.437   7.089  0.0936 -0.6181  0.0905
 4896UDC    C1053855   2.627  15.582   7.056  0.6991  0.7147 -0.0979
 4896UDC    C1153856   2.730  15.659   6.970  0.1503 -0.4839 -0.6668
 4897UDC     C153857   5.327  12.272   1.021  0.0015 -0.4977  0.1729
 4897UDC     C253858   5.439  12.312   1.112  0.0659  0.1825 -0.6987
 4897UDC     C353859   5.474  12.462   1.094  0.2042  0.5443  0.2134
 4897UDC     C453860   5.569  12.474   0.975  1.3882  0.5421  0.4434
 4897UDC     C553861   5.676  12.585   0.988  0.3411 -0.1301  0.4231
 4897UDC     C653862   5.621  12.736   0.998  0.0281  0.8531  0.0740
 4897UDC     C753863   5.722  12.849   0.952  0.4111  0.6367 -0.5835
 4897UDC     C853864   5.685  12.987   1.009 -0.0540 -0.9013  0.1091
 4897UDC     C953865   5.587  13.080   0.931 -0.8953 -0.4171  0.2047
 4897UDC    C1053866   5.609  13.223   0.964 -0.4029 -0.2033  0.4883
 4897UDC    C1153867   5.750  13.284   0.924  0.1839 -1.1551  0.1136
 4898UDC     C153868  14.675  13.869  19.566  0.8456  0.2857  0.9026
 4898UDC     C253869  14.599  13.793  19.456 -0.6698  0.8895  0.4559
 4898UDC     C353870  14.689  13.735  19.341 -0.8247 -0.5554  0.2110
 4898UDC     C453871  14.837  13.728  19.393 -0.2356  0.2165 -0.0238
 4898UDC     C553872  14.947  13.635  19.336  0.3932  0.3570 -0.1089
 4898UDC     C653873  14.926  13.489  19.291  0.0537  0.4457  1.0116
 4898UDC     C753874  15.042  13.461  19.197  0.4250  0.4821  0.4837
 4898UDC     C853875  15.007  13.350  19.105  0.3291  0.9328 -0.5131
 4898UDC     C953876  15.114  13.322  18.998 -0.1781 -0.6618 -0.7473
 4898UDC    C1053877  15.098  13.191  18.924  0.4439  0.1685  0.3575
 4898UDC    C1153878  15.175  13.224  18.796 -0.0984 -0.1613  0.2266
 4899UDC     C153879  19.389   0.301  19.665  0.0520 -0.4857  0.1153
 4899UDC     C253880  19.507   0.329  19.761 -0.3245  1.0521 -0.7958
 4899UDC     C353881  19.642   0.342  19.692  1.3082 -0.1004 -0.8522
 4899UDC     C453882  19.689   0.493  19.684 -0.7260 -0.2558  0.2066
 4899UDC     C553883  19.779   0.564  19.786 -0.2403 -0.4091 -0.0605
 4899UDC     C653884  19.831   0.692  19.742 -0.4052  1.3162 -0.0987
 4899UDC     C753885  19.944   0.707  19.634 -0.1147 -0.8519  0.0046
 4899UDC     C853886  19.977   0.856  19.599 -0.5696  0.5418 -0.2362
 4899UDC     C953887  20.078   0.852  19.486 -0.0490 -0.5880  0.0361
 4899UDC    C1053888  20.028   0.815  19.343  0.6969 -0.1330 -0.4691
 4899UDC    C1153889  20.081   0.675  19.293 -0.7187 -0.8707  0.0943
 4900UDC     C153890   4.572  17.418  12.555 -0.4688  0.6028 -0.2897
 4900UDC     C253891   4.510  17.361  12.682  0.1748 -0.1191 -0.2937
 4900UDC     C353892   4.590  17.274  12.776 -0.6344 -0.6458  0.1552
 4900UDC     C453893   4.498  17.219  12.889  0.6145 -1.0272 -0.5117
 4900UDC     C553894   4.578  17.186  13.012 -0.2983  0.5397 -0.3660
 4900UDC     C653895   4.675  17.283  13.076 -0.2991  0.7651 -0.6261
 4900UDC     C753896   4.698  17.232  13.219 -0.0682  0.3183  0.6503
 4900UDC     C853897   4.820  17.293  13.294  0.0144 -0.3714  0.3311
 4900UDC     C953898   4.890  17.228  13.419  0.9253  0.1999  0.7902
 4900UDC    C1053899   4.809  17.194  13.542  0.0230 -0.9349 -0.2506
 4900UDC    C1153900   4.772  17.317  13.630 -0.5082  0.2138 -0.3868
 4901UDC     C153901  12.249  16.141  18.835 -0.1278  0.8959  1.0287
 4901UDC     C253902  12.126  16.123  18.736 -0.8722 -1.3605  0.3906
 4901UDC     C353903  11.998  16.046  18.770  0.2346 -0.5681 -0.6241
 4901UDC     C453904  11.952  16.098  18.903  0.8584 -0.8930 -1.0608
 4901UDC     C553905  11.887  16.239  18.907  0.3769  1.0473  0.9284
 4901UDC     C653906  11.867  16.294  19.053  0.6509  0.1922  0.5977
 4901UDC     C753907  11.776  16.424  19.035 -0.2995  0.9562  0.0136
 4901UDC     C853908  11.815  16.525  18.925 -0.0226 -0.2637  0.0037
 4901UDC     C953909  11.782  16.671  18.946  0.0002 -0.4394  1.2131
 4901UDC    C1053910  11.770  16.691  19.095 -1.1453 -0.4553  0.1256
 4901UDC    C1153911  11.766  16.839  19.122 -0.3923  0.0462 -0.8109
 4902UDC     C153912  15.057  18.309  14.338  0.1496 -0.6818 -0.4573
 4902UDC     C253913  15.026  18.348  14.479  0.3367  0.3600  0.4348
 4902UDC     C353914  14.964  18.261  14.588  0.2156 -0.4904  0.3536
 4902UDC     C453915  15.051  18.167  14.670  0.0224  0.8378  0.4919
 4902UDC     C553916  15.136  18.242  14.773 -0.2305  0.1594  0.3661
 4902UDC     C653917  15.235  18.147  14.835 -0.3490 -0.4375 -0.4205
 4902UDC     C753918  15.345  18.218  14.924  0.5628  0.6745  0.1103
 4902UDC     C853919  15.456  18.125  14.973  0.0927  0.3180  0.2447
 4902UDC     C953920  15.577  18.189  15.035 -0.3706  0.3171  0.3158
 4902UDC    C1053921  15.625  18.277  14.919  0.1067  0.8570 -0.0548
 4902UDC    C1153922  15.717  18.383  14.954 -0.4698 -0.3022 -0.2395
 4903UDC     C153923  16.977  13.187   0.678 -1.5246 -0.1458 -0.5568
 4903UDC     C253924  17.026  13.302   0.765 -0.4873  0.0231  0.4946
 4903UDC     C353925  16.953  13.431   0.729 -1.0844  0.0085 -0.4301
 4903UDC     C453926  17.019  13.541   0.811  0.0302  0.4692  0.3712
 4903UDC     C553927  16.921  13.657   0.836  0.3275  0.4567  0.4828
 4903UDC     C653928  16.987  13.788   0.881  1.0675  0.1023 -0.0542
 4903UDC     C753929  17.099  13.848   0.793 -0.0502 -0.1143 -0.2344
 4903UDC     C853930  17.202  13.951   0.848  0.9311 -0.5616 -0.0371
 4903UDC     C953931  17.181  14.103   0.849 -1.0346 -0.8274 -1.5705
 4903UDC    C1053932  17.065  14.143   0.942  1.2930  0.3267 -0.4981
 4903UDC    C1153933  17.045  14.288   0.967  0.3176 -1.1919  0.2137
 4904UDC     C153934  15.417   6.847   2.938 -0.3823  0.6501  0.1350
 4904UDC     C253935  15.372   6.940   2.820 -0.0520 -0.0146  1.0842
 4904UDC     C353936  15.269   6.903   2.708  0.4586 -0.2468 -0.2289
 4904UDC     C453937  15.128   6.874   2.759 -0.3141 -0.3492 -0.9566
 4904UDC     C553938  15.025   6.846   2.653  0.9995 -0.2504 -0.0050
 4904UDC     C653939  14.871   6.851   2.693 -1.5419  0.4887 -0.6905
 4904UDC     C753940  14.776   6.739   2.641 -0.2347  1.1285  0.6235
 4904UDC     C853941  14.633   6.748   2.702  0.7182 -0.4080  0.3650
 4904UDC     C953942  14.527   6.650   2.653  1.2161 -0.5391 -0.3172
 4904UDC    C1053943  14.388   6.677   2.712  0.1655 -0.3977  0.3402
 4904UDC    C1153944  14.276   6.626   2.617  0.2155 -0.1271  1.0686
 4905UDC     C153945  18.645  12.153  11.465 -0.3003  0.5658  0.0259
 4905UDC     C253946  18.662  12.015  11.399  0.7987  0.0540  0.4390
 4905UDC     C353947  18.536  11.968  11.324 -0.1967 -0.0181 -0.6020
 4905UDC     C453948  18.467  12.079  11.244 -0.7367  0.0453 -0.2391
 4905UDC     C553949  18.341  12.071  11.159 -0.0255 -0.4061  0.6028
 4905UDC     C653950  18.203  12.113  11.220  0.4462  0.0668 -0.4795
 4905UDC     C753951  18.075  12.120  11.136  0.0321 -0.5974 -0.3232
 4905UDC     C853952  17.955  12.204  11.183 -0.0652 -0.0871 -0.5743
 4905UDC     C953953  17.828  12.177  11.101 -0.2271  0.1493  0.6722
 4905UDC    C1053954  17.710  12.246  11.160  0.6498  0.3467  0.4176
 4905UDC    C1153955  17.596  12.244  11.060  1.0377  0.4081 -0.5693
 4906UDC     C153956  14.503  17.305   9.055 -0.3491  0.3830  0.7269
 4906UDC     C253957  14.624  17.401   9.060 -0.2676 -0.0552  0.7195
 4906UDC     C353958  14.749  17.344   8.999 -0.3638  1.1434 -0.6720
 4906UDC     C453959  14.851  17.452   9.003 -1.1701 -0.2755  0.2669
 4906UDC     C553960  14.991  17.405   8.969  0.5940  1.2073  0.3047
 4906UDC     C653961  15.092  17.521   8.956 -0.2515 -0.7056  1.2288
 4906UDC     C753962  15.163  17.566   9.078 -0.8004  0.3122  0.0837
 4906UDC     C853963  15.213  17.709   9.064  0.3064  0.4666  0.3387
 4906UDC     C953964  15.325  17.716   8.959 -0.5015 -0.4411 -0.0748
 4906UDC    C1053965  15.341  17.870   8.921  1.7122  0.5029  0.0975
 4906UDC    C1153966  15.210  17.940   8.876  0.0356 -0.0344 -0.5470
 4907UDC     C153967  19.821   2.035  15.260  0.4099  0.8159 -0.6063
 4907UDC     C253968  19.943   1.962  15.313 -0.0138 -1.4541 -0.4034
 4907UDC     C353969  20.038   1.914  15.201 -0.6773 -1.0264 -0.3401
 4907UDC     C453970  20.069   2.033  15.105 -0.1740 -0.1488  0.1521
 4907UDC     C553971  20.139   2.159  15.163  0.0347 -0.0948 -0.2810
 4907UDC     C653972  20.086   2.288  15.090  0.1151  0.5504 -0.8315
 4907UDC     C753973  20.080   2.422  15.173  0.4679  0.3995 -0.7553
 4907UDC     C853974  20.006   2.541  15.106  0.7423 -0.4634  0.6157
 4907UDC     C953975  19.967   2.672  15.181 -0.2013 -0.7648  1.0438
 4907UDC    C1053976  19.909   2.776  15.086  0.8635  0.3880  0.1467
 4907UDC    C1153977  19.793   2.859  15.145 -0.0810 -0.8955 -0.6984
 4908UDC     C153978   0.220  13.978  18.641  0.2368 -0.3539  0.2607
 4908UDC     C253979   0.217  14.107  18.558 -0.0153  0.9008 -0.2885
 4908UDC     C353980   0.146  14.086  18.427  0.0839 -1.2879 -0.9486
 4908UDC     C453981  -0.000  14.094  18.431  1.3269 -1.1270  0.2253
 4908UDC     C553982  -0.073  14.006  18.336 -0.0646 -0.7224 -0.4335
 4908UDC     C653983  -0.051  14.013  18.187 -0.9526 -0.4333 -0.8555
 4908UDC     C753984  -0.066  13.873  18.124 -0.4515  0.3396 -0.2793
 4908UDC     C853985   0.016  13.783  18.206 -0.4595 -1.3836 -0.5110
 4908UDC     C953986   0.016  13.641  18.163  0.1410 -0.9955  0.0716
 4908UDC    C1053987   0.094  13.546  18.255 -0.2946  0.0307  0.0937
 4908UDC    C1153988   0.071  13.409  18.193  0.4023  0.4261  0.2299
 4909UDC     C153989  13.705  17.413  15.091 -0.5159 -0.6766 -0.7047
 4909UDC     C253990  13.780  17.324  14.993 -0.3175  0.0922 -0.0020
 4909UDC     C353991  13.764  17.182  15.048 -0.5291  0.3072 -0.8356
 4909UDC     C453992  13.859  17.072  14.991  0.8963 -1.1250 -0.5743
 4909UDC     C553993  13.824  16.929  15.027 -0.0012 -0.5359  1.0666
 4909UDC     C653994  13.922  16.837  14.948  1.2999 -0.5038 -0.2306
 4909UDC     C753995  14.025  16.768  15.038  0.6560 -0.9090 -0.0313
 4909UDC     C853996  14.114  16.669  14.974  0.0264  0.4609  0.1695
 4909UDC     C953997  14.191  16.731  14.859 -0.8794  0.1706 -0.2227
 4909UDC    C1053998  14.346  16.727  14.871  0.7605  0.8287  0.7473
 4909UDC    C1153999  14.399  16.581  14.824  1.0292  1.1547  0.4978
 4910UDC     C154000  14.852  17.985  15.625  1.0997  1.2500 -0.2125
 4910UDC     C254001  14.771  17.872  15.682 -1.2735 -0.4603 -0.8533
 4910UDC     C354002  14.812  17.818  15.828 -0.5573 -0.6600  0.8877
 4910UDC     C454003  14.697  17.728  15.878 -0.8686  0.0577 -0.4451
 4910UDC     C554004  14.713  17.701  16.029 -0.2345  0.0851 -0.5017
 4910UDC     C654005  14.701  17.810  16.134 -0.4839 -0.6865  0.0021
 4910UDC     C754006  14.749  17.738  16.260 -0.0844 -0.6605  0.6040
 4910UDC     C854007  14.899  17.778  16.282 -0.2655 -0.4672 -1.3128
 4910UDC     C954008  14.936  17.927  16.312  0.8930 -0.1926 -0.5796
 4910UDC    C1054009  15.058  17.926  16.405  0.3578 -0.1459  1.2755
 4910UDC    C1154010  15.047  17.891  16.553 -0.3741  0.1138  1.0581
 4911UDC     C154011   1.421  10.499   9.603 -0.6943  0.1030  0.7232
 4911UDC     C254012   1.534  10.443   9.696 -0.4124 -0.0375  0.8915
 4911UDC     C354013   1.497  10.381   9.827  0.3959  0.4476 -0.4735
 4911UDC     C454014   1.474  10.480   9.945 -0.5906 -1.1657  0.7284
 4911UDC     C554015   1.562  10.468  10.067  0.3105  0.5063 -0.2372
 4911UDC     C654016   1.602  10.608  10.126 -1.7689  1.0959 -0.1353
 4911UDC     C754017   1.676  10.579  10.259  0.3751  0.4962 -0.2548
 4911UDC     C854018   1.586  10.501  10.361  0.0063 -1.8410  0.2846
 4911UDC     C954019   1.658  10.490  10.493  1.0884 -0.3367  0.5653
 4911UDC    C1054020   1.585  10.405  10.597  0.8941  0.1850 -0.2708
 4911UDC    C1154021   1.674  10.314  10.679 -0.6920  1.4604  0.5928
 4912UDC     C154022   7.444  11.199  17.224  0.0446 -0.1202 -0.1223
 4912UDC     C254023   7.345  11.260  17.120 -0.8783  0.4042  0.4167
 4912UDC     C354024   7.282  11.393  17.166 -0.6306 -0.4283  0.7360
 4912UDC     C454025   7.199  11.395  17.290 -1.5162 -1.0766 -0.9118
 4912UDC     C554026   7.134  11.536  17.306  1.1392 -0.6738  0.4846
 4912UDC     C654027   7.212  11.660  17.353 -0.5049  0.3810  0.1007
 4912UDC     C754028   7.267  11.656  17.489 -1.7864 -0.8369 -2.3510
 4912UDC     C854029   7.379  11.762  17.516  0.3288 -0.0958  0.2453
 4912UDC     C954030   7.316  11.898  17.489  0.2622 -0.7246 -0.2482
 4912UDC    C1054031   7.412  12.023  17.510  2.0769  0.4450 -0.5257
 4912UDC    C1154032   7.547  11.966  17.554 -0.1350 -0.7718  0.8147
 4913UDC     C154033  12.012  17.544   7.698  0.0624 -0.2184  0.3710
 4913UDC     C254034  11.883  17.473   7.655  0.5524  0.4483  0.1575
 4913UDC     C354035  11.771  17.578   7.644 -0.8049  0.0619 -0.3477
 4913UDC     C454036  11.677  17.568   7.526 -0.5881  1.2669  0.6651
 4913UDC     C554037  11.735  17.619   7.392 -0.2041 -0.4946  0.1478
 4913UDC     C654038  11.634  17.719   7.319 -1.0112  0.3441 -1.4874
 4913UDC     C754039  11.514  17.651   7.245  1.1541  0.2088 -0.7767
 4913UDC     C854040  11.426  17.736   7.150 -0.0362  0.0086  0.7181
 4913UDC     C954041  11.375  17.638   7.050 -0.3312 -0.1913  0.1916
 4913UDC    C1054042  11.482  17.557   6.976  1.2480  0.7189  1.2055
 4913UDC    C1154043  11.421  17.419   6.910 -0.0682 -0.5103 -0.2385
 4914UDC     C154044   7.411  12.410  13.766 -0.4061  0.9102 -0.1108
 4914UDC     C254045   7.321  12.493  13.670 -0.0669  1.0919 -0.0789
 4914UDC     C354046   7.317  12.641  13.705  0.6112 -0.0924  0.1556
 4914UDC     C454047   7.220  12.741  13.621 -0.1675  0.3199 -0.6561
 4914UDC     C554048   7.207  12.883  13.674 -0.8356  0.7237 -0.6388
 4914UDC     C654049   7.093  12.983  13.638  0.6436 -0.0413  0.5208
 4914UDC     C754050   6.972  12.961  13.731 -0.0124 -0.8901 -0.6541
 4914UDC     C854051   6.870  12.859  13.684 -0.7285  0.4112 -0.4185
 4914UDC     C954052   6.768  12.821  13.788 -0.1192  0.5459  0.7175
 4914UDC    C1054053   6.664  12.711  13.728  0.5218 -0.9978 -0.6241
 4914UDC    C1154054   6.571  12.644  13.834  1.2032  0.7807 -0.3645
 4915UDC     C154055   1.584  19.614   2.573 -0.6911 -0.3143  1.2569
 4915UDC     C254056   1.481  19.505   2.605 -0.2565 -0.0529 -0.4275
 4915UDC     C354057   1.545  19.367   2.613 -0.8853  0.8069  0.5995
 4915UDC     C454058   1.449  19.257   2.623  2.7771 -0.0928  0.6571
 4915UDC     C554059   1.503  19.111   2.608  0.2008  0.0521  0.2104
 4915UDC     C654060   1.410  18.986   2.599 -0.3087 -0.2157  0.5164
 4915UDC     C754061   1.479  18.863   2.568  0.4787  0.9734 -0.3103
 4915UDC     C854062   1.404  18.739   2.527 -0.0160 -0.2441 -0.2286
 4915UDC     C954063   1.283  18.759   2.433 -0.3657  0.0278  0.8456
 4915UDC    C1054064   1.150  18.726   2.495  0.4065  0.0511 -0.6646
 4915UDC    C1154065   1.012  18.769   2.437 -0.6830  1.1132  0.3280
 4916UDC     C154066   4.009  19.790   9.838  0.4458  1.0381 -0.9017
 4916UDC     C254067   4.107  19.695   9.901 -0.4626  0.0118 -0.2626
 4916UDC     C354068   4.231  19.685   9.810  0.4492  0.2065  0.5977
 4916UDC     C454069   4.316  19.565   9.848 -0.1718 -0.7275 -0.3023
 4916UDC     C554070   4.454  19.572   9.785 -0.5453  0.1320 -1.3587
 4916UDC     C654071   4.533  19.434   9.786  0.1873 -0.7793 -0.2509
 4916UDC     C754072   4.639  19.440   9.681 -0.4573 -0.1899  0.1342
 4916UDC     C854073   4.562  19.437   9.550 -0.5924 -0.5715 -0.5921
 4916UDC     C954074   4.642  19.475   9.432  0.2504  0.0828  0.4853
 4916UDC    C1054075   4.691  19.622   9.450  0.8808 -0.5373 -0.2456
 4916UDC    C1154076   4.728  19.684   9.316 -1.0448 -1.0734  1.0011
 4917UDC     C154077  11.608  15.276  12.934 -0.6440 -1.1679  0.3223
 4917UDC     C254078  11.508  15.196  12.844 -0.6242  0.2671  0.1539
 4917UDC     C354079  11.353  15.210  12.867 -0.7540  0.1569 -0.2494
 4917UDC     C454080  11.250  15.139  12.773 -0.0181  0.6528 -0.1613
 4917UDC     C554081  11.105  15.112  12.812  0.5962  0.0114 -0.7954
 4917UDC     C654082  11.020  15.240  12.851  0.5063  0.7748  1.1743
 4917UDC     C754083  10.874  15.200  12.867  0.1892  0.6365  0.2408
 4917UDC     C854084  10.857  15.083  12.969 -0.4973  0.4163  0.0678
 4917UDC     C954085  10.714  15.039  12.967  0.0484  1.2492  0.0499
 4917UDC    C1054086  10.706  14.884  12.983 -0.7287  0.0225  0.3935
 4917UDC    C1154087  10.564  14.839  13.034 -0.0779 -0.6827  0.1468
 4918UDC     C154088  13.136   7.256   8.595  0.7507  0.8011 -0.0457
 4918UDC     C254089  13.247   7.357   8.622 -0.3508  0.6139 -0.4531
 4918UDC     C354090  13.219   7.430   8.485 -0.9336 -0.0162 -0.0142
 4918UDC     C454091  13.241   7.573   8.523  0.4713 -0.3520  0.1792
 4918UDC     C554092  13.193   7.675   8.413 -0.1398  1.3313 -0.5790
 4918UDC     C654093  13.190   7.668   8.256 -0.3273  0.0392  0.1341
 4918UDC     C754094  13.106   7.771   8.189 -1.1630 -0.6430 -0.1889
 4918UDC     C854095  13.093   7.750   8.037 -0.8158  1.4420 -0.4489
 4918UDC     C954096  13.107   7.884   7.972 -0.6231 -0.1478  0.2185
 4918UDC    C1054097  13.250   7.938   7.956 -1.0382  0.2166 -0.2683
 4918UDC    C1154098  13.263   8.074   7.892  0.3614  0.1884  0.3488
 4919UDC     C154099   9.054  13.269  12.606 -0.1874 -0.1101 -0.2064
 4919UDC     C254100   9.042  13.332  12.748  0.0578  2.3287 -0.7500
 4919UDC     C354101   9.097  13.469  12.780 -0.5735  0.8393  0.7061
 4919UDC     C454102   9.023  13.571  12.689 -0.3099 -0.2415  0.1610
 4919UDC     C554103   9.054  13.721  12.721 -0.8257 -0.4763 -0.1391
 4919UDC     C654104   9.175  13.776  12.639  0.4266  0.1961 -0.0721
 4919UDC     C754105   9.281  13.862  12.715 -0.5264  0.3520  0.0829
 4919UDC     C854106   9.418  13.805  12.690 -0.2420  1.2559  0.3436
 4919UDC     C954107   9.521  13.884  12.768  0.9681 -0.2601 -0.4939
 4919UDC    C1054108   9.482  14.034  12.786 -0.1535  0.0778  0.9084
 4919UDC    C1154109   9.593  14.140  12.765 -0.3741  0.5910 -0.0001
 4920UDC     C154110   7.509  15.797   7.188 -0.4214  0.0034 -0.8306
 4920UDC     C254111   7.404  15.765   7.303  0.5987  0.8003  0.8936
 4920UDC     C354112   7.428  15.681   7.428  0.8016 -0.1303 -0.0515
 4920UDC     C454113   7.326  15.673   7.546 -0.5483  0.3865  0.7622
 4920UDC     C554114   7.368  15.554   7.642  0.2244 -0.5541 -0.5006
 4920UDC     C654115   7.516  15.553   7.688 -0.2054 -0.6717  0.7456
 4920UDC     C754116   7.542  15.455   7.813 -0.4156  0.3905 -0.6363
 4920UDC     C854117   7.500  15.302   7.806 -0.2457 -0.4320 -0.6334
 4920UDC     C954118   7.545  15.202   7.916  0.5716 -0.2624 -0.1135
 4920UDC    C1054119   7.464  15.072   7.932 -0.0325 -0.5111 -0.7667
 4920UDC    C1154120   7.345  15.106   8.025 -0.0194  0.0946  0.3168
 4921UDC     C154121   0.712   5.761  18.418  0.4958 -0.7843 -0.3670
 4921UDC     C254122   0.745   5.612  18.449 -0.6512 -0.8799  0.5420
 4921UDC     C354123   0.710   5.531  18.323  0.0175  0.3332  0.6109
 4921UDC     C454124   0.730   5.375  18.344 -0.5953 -0.1098  0.0730
 4921UDC     C554125   0.649   5.333  18.468 -0.1335  0.5865  0.1833
 4921UDC     C654126   0.630   5.186  18.499 -1.2930  0.5817  0.1993
 4921UDC     C754127   0.624   5.156  18.649 -0.1485 -0.2434  0.0438
 4921UDC     C854128   0.732   5.060  18.688 -0.0923 -0.6730  0.7377
 4921UDC     C954129   0.735   5.055  18.841  0.0431  0.7706  0.5312
 4921UDC    C1054130   0.610   4.979  18.887  0.3974 -0.6569  0.2824
 4921UDC    C1154131   0.590   4.997  19.036 -1.9392  0.1828  0.0804
 4922UDC     C154132  11.431  13.255  13.125  0.5080 -0.2578  0.1641
 4922UDC     C254133  11.283  13.241  13.167  0.0362 -0.3371  1.0552
 4922UDC     C354134  11.224  13.380  13.173  0.4496  0.1535  0.4244
 4922UDC     C454135  11.234  13.455  13.041 -0.1133  0.3638  0.2075
 4922UDC     C554136  11.175  13.592  13.063 -0.0637  0.6270  0.0020
 4922UDC     C654137  11.239  13.715  13.001 -0.8962  0.1692 -0.6375
 4922UDC     C754138  11.207  13.743  12.854 -0.3579 -0.9794 -0.1343
 4922UDC     C854139  11.242  13.890  12.809 -0.1417 -0.0776 -0.3963
 4922UDC     C954140  11.147  14.005  12.861  0.5414  0.1248 -0.5141
 4922UDC    C1054141  11.163  14.045  13.013 -0.9208  0.2297  1.2083
 4922UDC    C1154142  11.128  14.192  13.048  0.3842  0.5082 -0.1997
 4923UDC     C154143   3.364  14.676  17.681 -0.4773 -0.6433  0.3249
 4923UDC     C254144   3.219  14.746  17.686 -0.9807  0.3947 -0.9400
 4923UDC     C354145   3.188  14.820  17.825 -1.2904 -0.6169 -0.5408
 4923UDC     C454146   3.082  14.929  17.793 -1.2265  1.1867 -1.1627
 4923UDC     C554147   3.129  15.028  17.691 -0.0628 -0.3483  0.1134
 4923UDC     C654148   3.274  15.099  17.713  0.3050 -0.3595  0.0542
 4923UDC     C754149   3.262  15.205  17.828  0.2040 -0.0843  0.3872
 4923UDC     C854150   3.190  15.319  17.762  0.1248  0.6616  0.4983
 4923UDC     C954151   3.253  15.451  17.807  0.2828 -0.0366 -0.4397
 4923UDC    C1054152   3.275  15.551  17.689  0.0751  0.0129 -0.4876
 4923UDC    C1154153   3.397  15.500  17.611 -0.9134  0.4535 -0.9662
 4924UDC     C154154   4.481  12.104  19.724 -0.1604 -0.1937  0.6539
 4924UDC     C254155   4.616  12.172  19.695  0.0512 -0.9440 -0.2166
 4924UDC     C354156   4.712  12.114  19.589 -0.4141 -0.8189  0.5265
 4924UDC     C454157   4.792  11.992  19.627  0.3351  0.6500 -0.4813
 4924UDC     C554158   4.886  11.953  19.511 -0.1668  0.8471  0.0633
 4924UDC     C654159   4.939  11.805  19.531  0.3234 -0.0570 -0.0441
 4924UDC     C754160   5.082  11.805  19.474 -0.4498  0.0889  0.3136
 4924UDC     C854161   5.152  11.662  19.485  0.1077  0.1211  0.2692
 4924UDC     C954162   5.075  11.567  19.390 -0.7517 -0.5039  0.5492
 4924UDC    C1054163   5.143  11.436  19.357 -0.9831 -1.0427  0.1287
 4924UDC    C1154164   5.136  11.410  19.204  0.3883 -0.7775  0.0741
 4925UDC     C154165  19.104  19.369   9.084 -0.1710  0.2535  0.5351
 4925UDC     C254166  19.111  19.217   9.039 -0.1063  0.2409  1.1555
 4925UDC     C354167  19.111  19.144   9.176  0.4803  0.1975  0.5216
 4925UDC     C454168  19.116  18.992   9.196 -0.4463 -0.4551 -0.0853
 4925UDC     C554169  19.262  18.957   9.164  0.2490  0.8597  0.3843
 4925UDC     C654170  19.293  18.808   9.195  0.8919  0.6109  0.0587
 4925UDC     C754171  19.312  18.753   9.337  0.1823  0.0955  0.1073
 4925UDC     C854172  19.184  18.731   9.415  0.9248  0.5268 -0.7001
 4925UDC     C954173  19.202  18.730   9.567  1.0531 -0.0236  0.6658
 4925UDC    C1054174  19.166  18.873   9.622 -0.0748 -0.6373  0.7411
 4925UDC    C1154175  19.011  18.914   9.594  0.2084  0.0129 -0.4158
 4926UDC     C154176   8.722  12.372  11.723 -0.3102 -0.4365  1.0705
 4926UDC     C254177   8.773  12.226  11.731  0.5779 -0.0789 -0.2416
 4926UDC     C354178   8.688  12.149  11.834  0.0837 -0.4466  0.2897
 4926UDC     C454179   8.746  12.012  11.881  0.3819 -0.2160 -0.3898
 4926UDC     C554180   8.737  11.890  11.779 -0.5540  0.5640  0.0353
 4926UDC     C654181   8.754  11.737  11.823  0.1637 -0.1992  0.7407
 4926UDC     C754182   8.901  11.708  11.877  0.5135 -0.1051  0.4938
 4926UDC     C854183   8.942  11.571  11.932  0.1832 -0.3308 -0.8473
 4926UDC     C954184   9.065  11.575  12.024 -0.8021 -0.3466  1.1573
 4926UDC    C1054185   9.187  11.611  11.933 -1.5512  0.5565 -0.3975
 4926UDC    C1154186   9.226  11.757  11.918  0.4064 -0.7082  0.5876
 4927UDC     C154187   8.411   3.144   5.109  0.1926 -0.0250  0.0629
 4927UDC     C254188   8.284   3.112   5.029 -0.3012  0.3007  0.4085
 4927UDC     C354189   8.268   3.153   4.885 -0.8183 -0.9221 -0.2152
 4927UDC     C454190   8.280   3.302   4.885  0.0571 -1.1287 -0.9336
 4927UDC     C554191   8.236   3.375   4.763  0.1155  0.0044  1.1908
 4927UDC     C654192   8.205   3.528   4.781  0.5023  0.2552 -0.4259
 4927UDC     C754193   8.226   3.634   4.670 -0.4945 -0.6407 -0.9831
 4927UDC     C854194   8.182   3.781   4.702  0.3559  0.3679 -0.5272
 4927UDC     C954195   8.272   3.885   4.779  0.1673  0.2806  0.6300
 4927UDC    C1054196   8.198   3.916   4.909 -0.5836 -0.4615 -1.6031
 4927UDC    C1154197   8.097   4.029   4.888 -0.8069  0.7820  1.3824
 4928UDC     C154198  12.336  14.336  11.836  0.1049  0.7289 -0.8773
 4928UDC     C254199  12.375  14.373  11.978  0.3452  0.2756 -0.4925
 4928UDC     C354200  12.389  14.244  12.072 -0.3355 -0.0921  0.6590
 4928UDC     C454201  12.432  14.282  12.217 -1.2786  0.7191 -0.1396
 4928UDC     C554202  12.319  14.334  12.303 -0.1888 -0.5469  0.3289
 4928UDC     C654203  12.379  14.375  12.436  0.4386 -0.0395  1.0879
 4928UDC     C754204  12.467  14.501  12.426  0.8054  0.4126 -1.8148
 4928UDC     C854205  12.579  14.467  12.523  0.7619  0.3335  0.6806
 4928UDC     C954206  12.543  14.452  12.670 -0.1223  0.7731 -0.6187
 4928UDC    C1054207  12.508  14.584  12.734 -0.3433 -0.5574 -0.5536
 4928UDC    C1154208  12.463  14.553  12.877 -1.0099 -0.0361 -0.6021
 4929UDC     C154209   4.559  13.820   9.592 -0.8850  0.0838 -0.3440
 4929UDC     C254210   4.445  13.878   9.516  0.2333  0.0291 -0.2792
 4929UDC     C354211   4.303  13.837   9.552  1.4148  0.2022  0.1385
 4929UDC     C454212   4.194  13.878   9.447  0.3186  0.5114 -0.2752
 4929UDC     C554213   4.166  14.026   9.440  0.6919 -0.1183  0.7663
 4929UDC     C654214   4.074  14.072   9.322  0.6452 -0.3701  0.0970
 4929UDC     C754215   4.112  14.206   9.265  0.1218 -0.6496 -0.1314
 4929UDC     C854216   4.022  14.312   9.333 -0.4042 -0.1478  0.2246
 4929UDC     C954217   3.881  14.314   9.274  0.3929 -0.3250  0.1392
 4929UDC    C1054218   3.797  14.436   9.291  0.4741 -1.0102  0.4686
 4929UDC    C1154219   3.828  14.479   9.436 -0.8462  0.2520 -0.0425
 4930UDC     C154220  11.338   0.110  13.418  0.5402  0.2214 -0.6576
 4930UDC     C254221  11.391   0.043  13.296  0.1780 -0.2622  0.1945
 4930UDC     C354222  11.489   0.135  13.212  0.2500  0.3429  0.5156
 4930UDC     C454223  11.602   0.201  13.287 -0.2512  0.5763  0.1864
 4930UDC     C554224  11.666   0.322  13.221 -0.0529 -0.3820  0.1449
 4930UDC     C654225  11.739   0.423  13.311 -0.0218  0.3023  0.7416
 4930UDC     C754226  11.745   0.575  13.302  0.6908  0.6783  0.2119
 4930UDC     C854227  11.853   0.626  13.403 -0.3604 -0.7441 -0.1838
 4930UDC     C954228  11.946   0.529  13.479  0.1288  0.2719 -0.7101
 4930UDC    C1054229  12.041   0.588  13.598 -0.7171  0.3129 -0.9431
 4930UDC    C1154230  11.958   0.640  13.717 -0.5516  0.0186  0.7835
 4931UDC     C154231  19.657   9.621  12.230 -0.2896 -0.5579  0.4039
 4931UDC     C254232  19.695   9.729  12.130  0.9468 -0.2623  0.7308
 4931UDC     C354233  19.782   9.820  12.214  0.3575  0.1405 -0.5450
 4931UDC     C454234  19.792   9.963  12.162 -0.4930 -0.5363  1.3315
 4931UDC     C554235  19.840  10.074  12.252  0.0022  0.2502  0.0945
 4931UDC     C654236  19.976  10.131  12.213 -0.1386 -0.6917  0.1217
 4931UDC     C754237  19.998  10.188  12.067  0.5524  0.8498 -0.1972
 4931UDC     C854238  20.123  10.258  12.036  0.1554  0.1343  0.8418
 4931UDC     C954239  20.143  10.348  11.913 -0.2352  0.2813  0.5606
 4931UDC    C1054240  20.288  10.404  11.894  0.8304  0.3958 -0.7232
 4931UDC    C1154241  20.370  10.296  11.819 -0.0240  0.7577  0.3410
 4932UDC     C154242   9.752  18.855  12.683 -1.1211  0.1250 -1.3225
 4932UDC     C254243   9.821  18.734  12.606 -0.1428  0.1817 -0.5803
 4932UDC     C354244   9.973  18.741  12.620  0.3190 -0.4854  1.0747
 4932UDC     C454245  10.037  18.647  12.517  0.1817  1.1806  0.7648
 4932UDC     C554246  10.190  18.603  12.541 -0.1327 -0.6680 -0.2951
 4932UDC     C654247  10.223  18.514  12.657 -0.4177  0.9425 -0.3214
 4932UDC     C754248  10.220  18.578  12.797 -0.6056  0.0974  0.6299
 4932UDC     C854249  10.314  18.695  12.837  0.5961 -0.7425 -0.1531
 4932UDC     C954250  10.461  18.683  12.789  0.3805 -0.1313  0.0808
 4932UDC    C1054251  10.560  18.794  12.834 -0.5100  0.5001 -0.7304
 4932UDC    C1154252  10.599  18.781  12.977 -0.3885 -0.5123 -0.1486
 4933UDC     C154253  10.786  17.953   3.694 -0.5309 -0.3001 -0.4936
 4933UDC     C254254  10.746  18.093   3.753 -0.2684  0.0425 -0.9764
 4933UDC     C354255  10.598  18.119   3.714  0.0204  0.6130  0.1232
 4933UDC     C454256  10.523  18.229   3.791  0.0185  0.3044 -0.9777
 4933UDC     C554257  10.507  18.228   3.949 -0.7485 -0.0473  0.8467
 4933UDC     C654258  10.461  18.368   3.999  0.8420  0.6752  0.4624
 4933UDC     C754259  10.329  18.406   3.941  0.8708 -0.5578  0.5468
 4933UDC     C854260  10.268  18.542   3.984  1.0115 -0.0864  0.0974
 4933UDC     C954261  10.231  18.588   4.129 -0.0364  0.1970 -0.2871
 4933UDC    C1054262  10.170  18.725   4.152  0.8281  0.7253 -0.4619
 4933UDC    C1154263  10.151  18.748   4.303 -0.5022 -0.6341  0.8828
 4934UDC     C154264   5.020  14.401   6.315  0.9163  0.3118  0.2131
 4934UDC     C254265   5.162  14.364   6.342 -1.0942 -0.0243 -1.3030
 4934UDC     C354266   5.254  14.363   6.221  0.1865  0.0627  0.2242
 4934UDC     C454267   5.218  14.268   6.102  0.0960  0.3205  0.8339
 4934UDC     C554268   5.304  14.297   5.978  0.3940 -0.7338 -0.3158
 4934UDC     C654269   5.320  14.453   5.981  0.1746  0.4593 -0.1200
 4934UDC     C754270   5.360  14.509   5.844 -0.4294  0.0513  0.4783
 4934UDC     C854271   5.384  14.659   5.823  0.9245  1.0130  0.5426
 4934UDC     C954272   5.259  14.745   5.773  0.2275  0.6638 -0.2402
 4934UDC    C1054273   5.275  14.882   5.720  0.6374  0.1051  0.0734
 4934UDC    C1154274   5.373  14.970   5.793  0.6477 -0.4857  0.1444
 4935UDC     C154275   6.758  14.654  11.695 -0.5555 -0.0424  0.2314
 4935UDC     C254276   6.633  14.585  11.643 -1.2277  0.3613  0.4906
 4935UDC     C354277   6.683  14.447  11.593 -0.3203 -1.4958  0.6039
 4935UDC     C454278   6.574  14.360  11.520 -0.5410 -0.1173 -0.3573
 4935UDC     C554279   6.637  14.259  11.438  1.0121 -1.2157  1.4157
 4935UDC     C654280   6.738  14.185  11.530 -0.2465 -0.1165 -0.0240
 4935UDC     C754281   6.796  14.059  11.459 -0.6775 -0.5422  0.4022
 4935UDC     C854282   6.937  14.003  11.494 -0.7437 -0.0246 -0.2965
 4935UDC     C954283   7.011  14.002  11.357  0.2312 -0.5346 -0.5191
 4935UDC    C1054284   7.097  14.118  11.310  0.0549 -0.3498 -1.0329
 4935UDC    C1154285   7.147  14.132  11.160  0.2177 -1.3344 -0.0495
 4936UDC     C154286   9.171  10.152   3.531 -0.5924  0.2311  0.0444
 4936UDC     C254287   9.078  10.076   3.622 -0.6483 -0.2219 -0.8519
 4936UDC     C354288   9.103  10.145   3.766 -0.0687  1.0399  0.4861
 4936UDC     C454289   9.245  10.161   3.828  0.5402 -0.5272  0.0072
 4936UDC     C554290   9.236  10.267   3.946  0.0723 -0.6826  0.2388
 4936UDC     C654291   9.363  10.346   3.960  0.2178  0.4720  0.4246
 4936UDC     C754292   9.383  10.421   4.093  1.4607 -0.0239 -0.6529
 4936UDC     C854293   9.389  10.307   4.201 -0.0187  0.7082  0.2033
 4936UDC     C954294   9.531  10.270   4.241 -0.9827  0.5438 -0.4054
 4936UDC    C1054295   9.607  10.373   4.335  1.0760  0.0465 -0.8680
 4936UDC    C1154296   9.695  10.317   4.443 -0.2288  1.0021  0.7796
 4937UDC     C154297   6.305   9.870  14.402 -0.1147  0.1034  0.9346
 4937UDC     C254298   6.308   9.788  14.271 -0.2335 -0.0644  0.9586
 4937UDC     C354299   6.449   9.751  14.215  0.6171 -1.6081  1.0108
 4937UDC     C454300   6.452   9.660  14.092  0.8380  0.2633 -0.6727
 4937UDC     C554301   6.504   9.517  14.100  0.9202  0.0246 -0.4416
 4937UDC     C654302   6.385   9.416  14.124 -0.0880  0.0858  0.2195
 4937UDC     C754303   6.447   9.284  14.077 -0.5061 -0.3394 -0.6076
 4937UDC     C854304   6.353   9.168  14.047  0.0832  0.0347 -0.5097
 4937UDC     C954305   6.413   9.019  14.030 -0.2665 -0.5827 -0.4302
 4937UDC    C1054306   6.319   8.899  14.066 -0.9424 -0.8804  0.2312
 4937UDC    C1154307   6.232   8.838  13.955 -0.9466  0.1152  1.0449
 4938UDC     C154308  16.012  14.601  18.902 -0.1895  1.0712 -0.0794
 4938UDC     C254309  15.914  14.481  18.886 -0.6368  0.2779  0.0056
 4938UDC     C354310  15.826  14.479  18.763  0.0522  0.3121  0.1985
 4938UDC     C454311  15.686  14.525  18.808  0.3518  0.6320 -0.3956
 4938UDC     C554312  15.605  14.398  18.798 -0.0727 -1.1937 -0.8591
 4938UDC     C654313  15.591  14.337  18.663 -0.5435 -0.1115  0.4484
 4938UDC     C754314  15.557  14.440  18.551  0.8182 -0.8023 -0.1615
 4938UDC     C854315  15.537  14.387  18.410  0.3347 -0.8927  0.2616
 4938UDC     C954316  15.425  14.450  18.315  0.5642  0.1983  0.0292
 4938UDC    C1054317  15.285  14.432  18.382  0.2346 -0.3517  0.2097
 4938UDC    C1154318  15.247  14.549  18.479  0.7096 -0.0038  0.9178
 4939UDC     C154319   4.215  16.979   3.829 -0.4782  0.8037  1.6007
 4939UDC     C254320   4.122  17.080   3.756  0.0821 -0.3419  1.2589
 4939UDC     C354321   3.982  17.110   3.823 -0.0445  0.3060  0.0511
 4939UDC     C454322   3.890  16.995   3.822  0.8430  0.1488  0.6414
 4939UDC     C554323   3.786  16.981   3.709  0.9277  0.8269 -0.1135
 4939UDC     C654324   3.693  16.859   3.716 -0.8006 -0.7250 -0.0081
 4939UDC     C754325   3.767  16.721   3.694 -0.1298 -0.5424 -0.2195
 4939UDC     C854326   3.811  16.706   3.546  0.0063  0.6733  1.0615
 4939UDC     C954327   3.853  16.555   3.522 -0.0063 -0.9095  0.0280
 4939UDC    C1054328   3.901  16.551   3.376 -0.0080 -0.7332  0.4034
 4939UDC    C1154329   3.861  16.406   3.320 -0.8077 -1.2721 -0.7225
 4940UDC     C154330   0.775  14.478  11.543 -1.0047  0.4230 -0.2928
 4940UDC     C254331   0.805  14.396  11.417  0.4401  0.0457 -0.0707
 4940UDC     C354332   0.937  14.323  11.403  0.1058  0.3334 -1.3441
 4940UDC     C454333   0.992  14.266  11.540  0.0654  0.6260  0.0468
 4940UDC     C554334   1.084  14.344  11.641 -0.1878 -0.7687 -0.4040
 4940UDC     C654335   1.172  14.239  11.712  0.5542  1.4093 -0.7222
 4940UDC     C754336   1.317  14.273  11.742  0.4104 -0.0368  0.6021
 4940UDC     C854337   1.347  14.290  11.891 -0.8405 -0.2632 -0.2716
 4940UDC     C954338   1.468  14.384  11.920  0.9065  0.5657  0.4983
 4940UDC    C1054339   1.530  14.360  12.054 -1.0122 -0.5256 -1.0604
 4940UDC    C1154340   1.432  14.353  12.173  1.0680 -0.2593 -0.0119
 4941UDC     C154341  16.372   4.186  12.588 -0.0216 -0.4246 -0.8111
 4941UDC     C254342  16.514   4.207  12.532 -0.0591 -0.1456  0.6907
 4941UDC     C354343  16.619   4.176  12.642 -0.6449 -0.3732  0.0029
 4941UDC     C454344  16.761   4.131  12.602  1.3183  1.3131  0.8129
 4941UDC     C554345  16.745   3.978  12.568 -0.6009 -0.4890 -0.1262
 4941UDC     C654346  16.867   3.897  12.506  0.1301 -0.5644 -0.0626
 4941UDC     C754347  16.860   3.747  12.514 -0.3395  0.6118 -0.1384
 4941UDC     C854348  16.767   3.681  12.415 -0.3373 -0.1044  0.0132
 4941UDC     C954349  16.828   3.708  12.275 -0.8565 -0.1741  0.6307
 4941UDC    C1054350  16.730   3.700  12.157 -1.1910 -0.3205 -0.6703
 4941UDC    C1154351  16.799   3.710  12.023  0.6277  0.0339 -0.0084
 4942UDC     C154352   3.335   8.579  10.986  0.2839 -0.6711  0.2051
 4942UDC     C254353   3.386   8.450  10.928  0.0427  0.4040 -0.8414
 4942UDC     C354354   3.467   8.459  10.802 -0.2185  0.9330 -0.6687
 4942UDC     C454355   3.574   8.566  10.830 -0.4586 -0.7210 -0.4812
 4942UDC     C554356   3.655   8.617  10.712  0.5090  1.0236  1.4724
 4942UDC     C654357   3.762   8.720  10.741  0.0025  1.0947  0.6105
 4942UDC     C754358   3.692   8.859  10.747  0.4049  0.2107 -0.1095
 4942UDC     C854359   3.786   8.966  10.705 -0.7104  0.5030 -0.7719
 4942UDC     C954360   3.849   8.947  10.562  1.7450  0.7863 -0.6016
 4942UDC    C1054361   3.918   9.074  10.498  0.0365  0.1555 -1.1813
 4942UDC    C1154362   4.063   9.089  10.545 -0.2106  1.2397  0.1904
 4943UDC     C154363   6.762  15.841  11.130  0.4641 -0.0159  0.1732
 4943UDC     C254364   6.729  15.821  10.979 -0.8742  0.1863  0.2443
 4943UDC     C354365   6.700  15.672  10.936  0.7061 -1.3429  0.1605
 4943UDC     C454366   6.785  15.559  10.992  0.3868  0.1188 -0.1656
 4943UDC     C554367   6.703  15.477  11.089 -0.2180  1.4268  0.1487
 4943UDC     C654368   6.763  15.336  11.116 -0.9710 -0.6830 -0.6616
 4943UDC     C754369   6.688  15.203  11.116 -0.8280  0.0265 -0.6393
 4943UDC     C854370   6.558  15.220  11.193 -0.2982  0.2044  1.1663
 4943UDC     C954371   6.470  15.109  11.210  0.1815 -0.2780  0.1076
 4943UDC    C1054372   6.535  14.967  11.231  0.2495 -0.8789 -0.3718
 4943UDC    C1154373   6.431  14.853  11.221 -1.4268  0.2682 -0.3322
 4944UDC     C154374  13.091   9.703  12.330 -0.6894  0.3585  0.2506
 4944UDC     C254375  13.050   9.792  12.213  0.5506 -0.2227 -0.7243
 4944UDC     C354376  13.172   9.882  12.174 -1.0072  0.8024  0.6002
 4944UDC     C454377  13.114   9.968  12.060  0.2626  0.2266  0.3579
 4944UDC     C554378  13.214  10.070  12.005  0.1943 -0.8903 -0.2069
 4944UDC     C654379  13.335  10.005  11.940 -0.5003 -0.2275  0.6227
 4944UDC     C754380  13.307   9.887  11.839  0.2861  0.0126  0.3295
 4944UDC     C854381  13.427   9.803  11.814 -0.0192  0.3298 -0.3515
 4944UDC     C954382  13.519   9.908  11.743  0.4873  0.2405  0.7032
 4944UDC    C1054383  13.657   9.837  11.732 -0.6804 -0.2159  1.3230
 4944UDC    C1154384  13.746   9.856  11.854 -0.3316 -0.0075  0.4569
 4945UDC     C154385   0.170  13.214  12.943 -0.4218 -1.3911  0.9079
 4945UDC     C254386   0.203  13.072  12.983  0.9526  0.4485 -0.4497
 4945UDC     C354387   0.143  12.968  12.885  0.7255 -0.0497  0.2064
 4945UDC     C454388  -0.005  12.947  12.910 -0.9185  0.3585 -0.7933
 4945UDC     C554389  -0.072  12.877  12.800  0.2862 -0.4147  0.8986
 4945UDC     C654390  -0.075  12.964  12.677 -0.0900 -1.3104  1.2867
 4945UDC     C754391  -0.133  12.903  12.546  1.4108 -0.1867  0.3140
 4945UDC     C854392  -0.115  12.995  12.425 -0.9305 -0.1826 -0.0824
 4945UDC     C954393   0.020  12.980  12.355 -0.9500 -0.6730 -0.0085
 4945UDC    C1054394   0.011  12.918  12.216 -0.9004  1.0011 -0.3327
 4945UDC    C1154395   0.118  12.960  12.110  0.6910  1.6474  0.0246
 4946UDC     C154396   8.477  18.837  12.787  1.3715 -0.9986  0.4877
 4946UDC     C254397   8.488  18.769  12.651 -0.9274 -0.5910  0.4879
 4946UDC     C354398   8.575  18.642  12.657  1.1171 -0.4028 -0.4299
 4946UDC     C454399   8.519  18.505  12.635 -0.3534 -0.2261  0.9712
 4946UDC     C554400   8.428  18.432  12.740  0.4227 -0.1166  0.4771
 4946UDC     C654401   8.364  18.295  12.702  0.9577 -0.4899 -1.0434
 4946UDC     C754402   8.478  18.204  12.648 -0.9817 -0.5972  0.1025
 4946UDC     C854403   8.516  18.115  12.769  0.3581  0.1863  0.9661
 4946UDC     C954404   8.623  18.161  12.867  0.5509 -0.1247 -0.2333
 4946UDC    C1054405   8.765  18.157  12.808 -0.4455 -0.7903  0.4121
 4946UDC    C1154406   8.866  18.229  12.900  1.5100 -0.6975  0.5060
 4947UDC     C154407   8.980  17.865   7.623  0.1289  0.9546  0.5439
 4947UDC     C254408   9.094  17.801   7.693 -0.7770  0.8951 -0.9442
 4947UDC     C354409   9.167  17.883   7.799 -0.7064  0.4746  0.1477
 4947UDC     C454410   9.310  17.831   7.831  0.3665  0.4300 -0.4690
 4947UDC     C554411   9.379  17.850   7.692 -0.6195 -0.0365 -0.5070
 4947UDC     C654412   9.412  17.997   7.653  0.7305 -0.6165 -1.0028
 4947UDC     C754413   9.486  18.076   7.761  0.3691  0.0647  1.3288
 4947UDC     C854414   9.539  18.209   7.723  0.4135 -0.2224 -0.2841
 4947UDC     C954415   9.609  18.278   7.839 -0.0678  0.4962  0.0550
 4947UDC    C1054416   9.746  18.221   7.882  0.6257 -0.0060  0.4920
 4947UDC    C1154417   9.848  18.235   7.774  0.3988 -0.1590 -0.0377
 4948UDC     C154418  15.783  14.267   9.304 -0.3502  0.0158 -1.1102
 4948UDC     C254419  15.864  14.183   9.405 -0.0043  0.7586 -0.3770
 4948UDC     C354420  15.881  14.240   9.551  0.8655 -0.4517 -0.3626
 4948UDC     C454421  15.970  14.362   9.554  0.4742 -0.3820  0.0101
 4948UDC     C554422  15.980  14.438   9.685  0.3971  0.1135  0.0863
 4948UDC     C654423  15.861  14.539   9.689 -0.4249  0.6922  1.8992
 4948UDC     C754424  15.819  14.606   9.820  0.2051 -0.7326  0.1648
 4948UDC     C854425  15.711  14.723   9.827  2.1013 -0.1544  0.4707
 4948UDC     C954426  15.708  14.801   9.694  0.2968  0.0572 -0.4712
 4948UDC    C1054427  15.604  14.748   9.590 -0.5424  0.0609  0.4057
 4948UDC    C1154428  15.598  14.845   9.469  0.0621  0.8593 -0.0405
 4949UDC     C154429   3.754   3.858  10.782  0.4683 -0.0374  0.0951
 4949UDC     C254430   3.658   3.746  10.815 -1.3642  0.1452 -0.5218
 4949UDC     C354431   3.513   3.782  10.771 -1.9847  0.2616 -0.7963
 4949UDC     C454432   3.410   3.663  10.782  0.0377  0.4825  0.1819
 4949UDC     C554433   3.408   3.594  10.921 -0.2043  0.1707 -1.1127
 4949UDC     C654434   3.299   3.483  10.932  0.4166  0.6502 -0.0275
 4949UDC     C754435   3.318   3.369  10.825 -0.0491  0.0218 -0.2005
 4949UDC     C854436   3.367   3.223  10.866  0.6568 -1.1511 -0.7614
 4949UDC     C954437   3.340   3.119  10.757 -0.4841  0.3445  0.1026
 4949UDC    C1054438   3.400   2.979  10.791 -0.7759 -0.0269 -0.1067
 4949UDC    C1154439   3.324   2.900  10.903 -0.0331 -0.0367 -0.3473
 4950UDC     C154440  10.382   4.313  12.198 -0.1663  0.5338 -0.0901
 4950UDC     C254441  10.236   4.331  12.197  0.0904 -0.4938  0.5036
 4950UDC     C354442  10.205   4.345  12.044  0.7004 -0.3049 -0.2438
 4950UDC     C454443  10.150   4.212  11.975  0.7640 -0.1207 -0.2544
 4950UDC     C554444  10.126   4.220  11.825  0.4383 -0.5454  0.3419
 4950UDC     C654445   9.979   4.157  11.784 -0.3861  0.2186  0.1842
 4950UDC     C754446   9.921   4.198  11.648  0.9484  0.4119  0.7467
 4950UDC     C854447   9.879   4.349  11.638  0.2627 -0.5239 -0.3648
 4950UDC     C954448   9.783   4.356  11.516 -0.7561  0.3750 -0.9350
 4950UDC    C1054449   9.678   4.460  11.507  0.5293 -0.9739 -0.1076
 4950UDC    C1154450   9.566   4.464  11.400  0.4750 -0.3684  0.8286
 4951UDC     C154451   6.988   8.568  13.773  0.0537  0.1364 -0.0507
 4951UDC     C254452   7.108   8.652  13.816 -0.8406 -0.3140 -0.1487
 4951UDC     C354453   7.234   8.584  13.880 -0.5698  1.2458 -0.2596
 4951UDC     C454454   7.324   8.482  13.801 -0.5791 -0.4258 -0.2131
 4951UDC     C554455   7.291   8.454  13.653  0.2962  0.5828 -0.0655
 4951UDC     C654456   7.368   8.536  13.554 -1.2043  0.4148 -0.3733
 4951UDC     C754457   7.342   8.466  13.418 -1.6388  0.8393 -0.0103
 4951UDC     C854458   7.455   8.471  13.313  0.2786  0.1429 -0.4153
 4951UDC     C954459   7.423   8.370  13.200 -0.8988  0.3031 -0.2082
 4951UDC    C1054460   7.273   8.377  13.162 -0.2441  0.7544 -1.1553
 4951UDC    C1154461   7.212   8.261  13.069 -0.0391  0.4358  0.5110
 4952UDC     C154462  12.725  14.417  19.604 -0.9193 -0.4228 -0.6370
 4952UDC     C254463  12.790  14.281  19.562  0.2911 -1.0296  0.4638
 4952UDC     C354464  12.897  14.202  19.641  0.1770 -0.0923 -0.0700
 4952UDC     C454465  12.891  14.055  19.607 -0.9926  0.5793 -0.8184
 4952UDC     C554466  12.758  14.010  19.659  0.0397  0.4272 -0.1196
 4952UDC     C654467  12.772  13.856  19.690  1.1375 -0.1823  0.4828
 4952UDC     C754468  12.653  13.808  19.784 -0.1979 -0.2272  0.2476
 4952UDC     C854469  12.518  13.794  19.709 -0.2679 -0.5599  0.9016
 4952UDC     C954470  12.396  13.742  19.791 -0.0642  0.0399  0.3196
 4952UDC    C1054471  12.287  13.660  19.721  1.3784  0.5762  0.8939
 4952UDC    C1154472  12.147  13.651  19.782  0.9327  0.2595 -0.8257
 4953UDC     C154473   6.787  11.558   4.467  0.0087  0.3914 -0.9927
 4953UDC     C254474   6.714  11.698   4.471 -0.0636  0.1584  0.6192
 4953UDC     C354475   6.749  11.793   4.356  0.1071 -0.4669  0.0475
 4953UDC     C454476   6.667  11.923   4.339 -0.7285  0.0716  0.2453
 4953UDC     C554477   6.687  11.984   4.477  0.0385 -1.0083  0.9675
 4953UDC     C654478   6.550  12.029   4.531 -0.7851  0.0066  0.6202
 4953UDC     C754479   6.581  12.094   4.672 -0.6216  0.3987 -0.5715
 4953UDC     C854480   6.653  12.236   4.670 -0.4434  0.3577 -0.4304
 4953UDC     C954481   6.562  12.351   4.626  0.4041  1.0055 -0.3503
 4953UDC    C1054482   6.634  12.482   4.631 -0.6116 -0.8080  0.6290
 4953UDC    C1154483   6.546  12.607   4.605  0.5697 -0.5327  0.1544
 4954UDC     C154484   1.058  12.250  11.511 -0.8324  0.4651 -0.4697
 4954UDC     C254485   1.049  12.403  11.491 -0.9189 -0.4487 -0.3591
 4954UDC     C354486   1.172  12.454  11.423 -0.2266 -0.4300  0.1362
 4954UDC     C454487   1.174  12.611  11.422 -0.2792 -0.2328  0.6537
 4954UDC     C554488   1.216  12.678  11.556  0.0117 -0.6093  0.1176
 4954UDC     C654489   1.110  12.686  11.661  0.5588 -0.6286 -0.8534
 4954UDC     C754490   1.105  12.814  11.738  0.0554 -0.4147 -0.4208
 4954UDC     C854491   1.025  12.920  11.661 -0.2603 -0.2742 -0.3509
 4954UDC     C954492   0.874  12.930  11.662 -0.5781 -0.8289 -0.1647
 4954UDC    C1054493   0.829  12.867  11.797 -0.5929 -0.2208 -0.0688
 4954UDC    C1154494   0.706  12.777  11.786  0.1130 -1.2542  0.0368
 4955UDC     C154495   7.343   0.455  15.619 -0.1753 -0.2910 -1.0619
 4955UDC     C254496   7.270   0.499  15.496  0.5848  0.8503 -0.1246
 4955UDC     C354497   7.174   0.404  15.429  1.4614 -0.2064  0.6939
 4955UDC     C454498   7.102   0.449  15.296  0.7644  0.3489 -1.4330
 4955UDC     C554499   7.184   0.515  15.184 -0.2658  0.4546 -0.0606
 4955UDC     C654500   7.173   0.664  15.190  0.4342 -0.1761 -0.0836
 4955UDC     C754501   7.264   0.717  15.084  0.5211 -1.2521  0.4188
 4955UDC     C854502   7.326   0.603  14.996 -0.9166 -0.8285 -0.0211
 4955UDC     C954503   7.377   0.631  14.850 -0.5222 -0.0667 -0.2419
 4955UDC    C1054504   7.278   0.649  14.734  0.7020 -0.2382  0.0198
 4955UDC    C1154505   7.323   0.670  14.591 -0.7108  0.2198 -0.3239
 4956UDC     C154506  17.921  12.874   7.588 -0.4679  0.1645 -0.8239
 4956UDC     C254507  17.964  12.883   7.740  1.2002 -0.6887 -1.5814
 4956UDC     C354508  18.106  12.860   7.784 -1.4291 -0.1042 -0.9512
 4956UDC     C454509  18.131  12.880   7.937  0.7007  0.2185  0.3964
 4956UDC     C554510  18.064  12.770   8.024 -0.7125  0.0381 -0.3385
 4956UDC     C654511  18.155  12.651   8.049  0.4081  0.5962  0.8963
 4956UDC     C754512  18.172  12.549   7.937  0.5823  0.0130  0.1831
 4956UDC     C854513  18.169  12.399   7.980 -0.5057 -1.6797  0.0419
 4956UDC     C954514  18.166  12.308   7.857  0.1212 -1.0814  0.7213
 4956UDC    C1054515  18.224  12.167   7.868 -0.2138  0.3871 -1.0344
 4956UDC    C1154516  18.244  12.101   7.730  0.7755 -0.3322  0.9566
 4957UDC     C154517   8.644  19.923   7.956 -0.1494 -0.6524  0.6354
 4957UDC     C254518   8.702  19.864   8.088  0.5010  0.2466  0.5154
 4957UDC     C354519   8.837  19.797   8.073 -0.3822  0.1460 -0.1183
 4957UDC     C454520   8.830  19.655   8.008  0.5926  0.0017 -0.7176
 4957UDC     C554521   8.927  19.546   8.048 -1.2163 -0.3189  0.0966
 4957UDC     C654522   8.900  19.408   7.983  0.3672 -0.0553  0.5352
 4957UDC     C754523   9.041  19.347   7.962 -0.7590  0.1757  0.3596
 4957UDC     C854524   9.123  19.419   7.857  0.4097  0.2189 -0.0826
 4957UDC     C954525   9.268  19.358   7.852 -0.8562  0.8325  0.8590
 4957UDC    C1054526   9.355  19.422   7.742 -0.1467  0.0347  0.3114
 4957UDC    C1154527   9.334  19.574   7.744 -0.2869  0.8310  0.6388
 4958UDC     C154528   6.667  16.599  19.540 -0.1429  0.4217  0.9938
 4958UDC     C254529   6.784  16.695  19.543 -0.4701  0.0190  0.0875
 4958UDC     C354530   6.930  16.642  19.531 -0.6626 -0.5591  0.1267
 4958UDC     C454531   6.962  16.605  19.378 -0.3066 -0.2635  0.0847
 4958UDC     C554532   6.966  16.684  19.249 -0.8388 -0.0093  0.7599
 4958UDC     C654533   7.048  16.632  19.125  0.4988 -0.3527 -0.2433
 4958UDC     C754534   7.030  16.710  18.988 -0.3133 -1.0648 -0.4534
 4958UDC     C854535   7.124  16.678  18.876 -0.6800  0.1670  0.2583
 4958UDC     C954536   7.110  16.537  18.810 -0.1179 -0.7370  0.2777
 4958UDC    C1054537   7.130  16.518  18.661 -0.2761  0.7644 -0.8629
 4958UDC    C1154538   7.024  16.592  18.578  0.6357  0.2106  0.0151
 4959UDC     C154539  15.755   0.838  11.593 -0.0334 -0.6808  0.0054
 4959UDC     C254540  15.891   0.898  11.555 -0.5388 -0.2090 -0.6391
 4959UDC     C354541  15.977   0.812  11.460  1.1769 -0.3038  0.4357
 4959UDC     C454542  15.936   0.844  11.314 -0.3237  0.2214 -0.2568
 4959UDC     C554543  16.027   0.779  11.210 -1.6953 -0.6457  0.4531
 4959UDC     C654544  16.106   0.651  11.255  0.3666 -0.1923  0.2430
 4959UDC     C754545  16.236   0.628  11.173 -0.0026 -0.3009  0.1488
 4959UDC     C854546  16.332   0.520  11.235 -0.0757  0.1849  0.3881
 4959UDC     C954547  16.449   0.478  11.148 -0.2200  0.1907  0.9571
 4959UDC    C1054548  16.500   0.338  11.155 -0.3847  0.3679 -0.5167
 4959UDC    C1154549  16.510   0.266  11.018  1.1497 -0.9696  0.9331
 4960UDC     C154550  12.413  10.060   7.310 -0.5119  0.2039  0.7704
 4960UDC     C254551  12.324  10.185   7.273 -0.7809 -0.1851  0.4581
 4960UDC     C354552  12.178  10.154   7.255 -0.0029 -0.9979  0.6493
 4960UDC     C454553  12.125  10.071   7.373 -0.1349 -0.2556 -0.2949
 4960UDC     C554554  11.972  10.070   7.380  0.0130 -1.3035 -0.4769
 4960UDC     C654555  11.927  10.047   7.522 -0.0653  0.3945 -0.8460
 4960UDC     C754556  11.774  10.034   7.539 -0.0965  0.2134 -1.4777
 4960UDC     C854557  11.700  10.165   7.547  0.0173 -0.1450 -0.3139
 4960UDC     C954558  11.723  10.263   7.668 -0.3518 -0.2395  0.2688
 4960UDC    C1054559  11.689  10.204   7.808  0.2602 -0.2013  0.5668
 4960UDC    C1154560  11.713  10.299   7.926  0.2704 -0.1653  0.2259
 4961UDC     C154561   4.305  18.608   7.420  1.3146 -0.1986 -0.5875
 4961UDC     C254562   4.388  18.574   7.301 -0.0730  0.0187  0.9100
 4961UDC     C354563   4.375  18.678   7.181 -0.3427 -0.5548 -0.3501
 4961UDC     C454564   4.457  18.657   7.044  1.1349  0.1396 -0.4315
 4961UDC     C554565   4.488  18.782   6.955  0.1263 -0.7074 -0.3855
 4961UDC     C654566   4.507  18.912   7.041 -0.0573 -0.4497  0.9006
 4961UDC     C754567   4.555  19.029   6.952  0.5006 -0.3111 -0.5543
 4961UDC     C854568   4.682  19.013   6.869 -0.7673  0.3297 -0.4518
 4961UDC     C954569   4.733  19.140   6.794  0.8557 -0.4145  0.0142
 4961UDC    C1054570   4.881  19.157   6.755  0.0028 -0.2670  0.3700
 4961UDC    C1154571   4.958  19.233   6.867 -0.7414  0.3793 -0.1670
 4962UDC     C154572   1.418   4.597   9.577  0.1116  0.4385  0.3286
 4962UDC     C254573   1.513   4.686   9.669  0.3783 -0.1364  0.1566
 4962UDC     C354574   1.596   4.607   9.770 -0.1743  0.7513  0.8137
 4962UDC     C454575   1.527   4.532   9.886 -0.2384 -0.3927 -0.3398
 4962UDC     C554576   1.622   4.432   9.957  0.4751 -1.0050  0.6673
 4962UDC     C654577   1.622   4.296   9.888 -0.7709  0.4896  0.6168
 4962UDC     C754578   1.503   4.200   9.902  0.3322 -0.3545 -0.6133
 4962UDC     C854579   1.509   4.060   9.840  0.4772 -0.2857 -0.3675
 4962UDC     C954580   1.396   3.970   9.871  0.2783 -0.5616  0.2206
 4962UDC    C1054581   1.399   3.908  10.013 -0.4981 -0.7559 -0.1640
 4962UDC    C1154582   1.341   3.762  10.033  0.8649 -0.3118  0.3985
 4963UDC     C154583   2.288  18.261   1.691  0.5188  0.2515  0.1757
 4963UDC     C254584   2.248  18.149   1.595  0.8585  0.1591 -0.8980
 4963UDC     C354585   2.176  18.198   1.466 -0.1469  0.1276  0.3224
 4963UDC     C454586   2.123  18.093   1.359 -0.5902 -0.1693 -0.5408
 4963UDC     C554587   2.080  18.153   1.227  0.0443  1.5637 -0.7488
 4963UDC     C654588   2.115  18.050   1.119 -0.7257  1.0359  0.3180
 4963UDC     C754589   2.085  18.101   0.970 -1.2427  0.8338 -0.2493
 4963UDC     C854590   2.069  17.990   0.859 -0.5141 -0.4860 -0.9795
 4963UDC     C954591   2.124  18.023   0.716  1.0419  0.0680 -0.0597
 4963UDC    C1054592   2.268  17.965   0.687  0.0595  0.1531 -0.5832
 4963UDC    C1154593   2.324  17.945   0.544  0.3876  0.1146  0.8027
 4964UDC     C154594   5.412  17.170  11.342  0.4002  0.1960 -0.1823
 4964UDC     C254595   5.504  17.189  11.464 -0.6520 -0.1677 -0.5827
 4964UDC     C354596   5.657  17.196  11.428  0.1564 -0.2317 -0.5811
 4964UDC     C454597   5.691  17.343  11.439 -0.7847 -0.7093  0.4357
 4964UDC     C554598   5.663  17.407  11.576  0.7282 -0.2949 -1.0534
 4964UDC     C654599   5.728  17.545  11.599  0.5863 -0.3355 -0.3228
 4964UDC     C754600   5.880  17.546  11.629 -0.5780  0.0639 -1.1854
 4964UDC     C854601   5.945  17.681  11.607  0.3892  0.4644 -0.3090
 4964UDC     C954602   6.097  17.694  11.629  0.3876  1.4504 -0.8484
 4964UDC    C1054603   6.131  17.839  11.586  0.2698  1.5637 -0.1806
 4964UDC    C1154604   6.191  17.837  11.442 -0.4932 -0.1625 -0.0723
 4965UDC     C154605   9.623   9.761  19.984 -0.5640  0.2486  0.0063
 4965UDC     C254606   9.540   9.657  20.073 -0.4956  0.4835 -0.7148
 4965UDC     C354607   9.442   9.568  20.006  0.5354  0.6130  0.0127
 4965UDC     C454608   9.422   9.426  20.074  0.7097  0.8988 -0.3977
 4965UDC     C554609   9.307   9.422  20.179  0.5067  0.1992 -0.6599
 4965UDC     C654610   9.290   9.274  20.238 -0.9624  0.0050  0.7647
 4965UDC     C754611   9.201   9.170  20.171 -1.3058  1.3400  0.6218
 4965UDC     C854612   9.204   9.032  20.243  0.1006  1.3002  0.5416
 4965UDC     C954613   9.239   8.919  20.143  0.3587  1.4615 -1.1656
 4965UDC    C1054614   9.229   8.770  20.188 -0.5922 -0.6301 -0.6434
 4965UDC    C1154615   9.092   8.721  20.231 -0.2457 -0.2393  1.1123
 4966UDC     C154616  12.902   3.966  11.867  0.2238  0.7006  0.5451
 4966UDC     C254617  12.782   3.988  11.764 -1.4185  0.6684 -0.0883
 4966UDC     C354618  12.783   3.877  11.650  0.1158 -0.2469  0.3088
 4966UDC     C454619  12.699   3.929  11.528 -0.1459  0.0751 -0.3446
 4966UDC     C554620  12.671   3.836  11.412  0.8943 -0.5044  0.4921
 4966UDC     C654621  12.579   3.884  11.298 -0.5039 -0.1070 -0.8107
 4966UDC     C754622  12.582   3.794  11.173 -0.6043 -0.3467 -0.1216
 4966UDC     C854623  12.705   3.798  11.073 -0.2249 -0.8079  0.5641
 4966UDC     C954624  12.701   3.715  10.948  0.8266  0.0672  0.6501
 4966UDC    C1054625  12.800   3.605  10.924  0.1805  0.6383 -0.7218
 4966UDC    C1154626  12.845   3.520  11.049 -0.1135  0.5050  0.0206
 4967UDC     C154627  14.562  10.413   8.803  0.1323 -0.4991 -0.2408
 4967UDC     C254628  14.564  10.563   8.767  0.4006 -0.2941  0.2284
 4967UDC     C354629  14.705  10.624   8.789  0.2135  0.9185 -0.5147
 4967UDC     C454630  14.806  10.562   8.688 -0.7595  0.1807 -0.0843
 4967UDC     C554631  14.950  10.619   8.685  0.6183  0.1815  0.6574
 4967UDC     C654632  15.038  10.561   8.572 -0.7573  0.2677 -0.6690
 4967UDC     C754633  15.173  10.640   8.561 -0.6941  0.4482 -1.0628
 4967UDC     C854634  15.294  10.542   8.548 -0.4924  0.3534 -0.5042
 4967UDC     C954635  15.435  10.609   8.548  0.1892  0.0930  0.4975
 4967UDC    C1054636  15.545  10.496   8.541 -0.5476  0.1606 -0.5945
 4967UDC    C1154637  15.671  10.559   8.484 -0.3281  0.1561  0.4378
 4968UDC     C154638   1.524  13.695   0.740 -0.0997 -0.2619  0.3043
 4968UDC     C254639   1.655  13.752   0.678  0.0308 -0.8339  0.2016
 4968UDC     C354640   1.771  13.759   0.780 -0.6366  0.3929  0.8666
 4968UDC     C454641   1.887  13.845   0.718  0.3288  0.9640  0.0831
 4968UDC     C554642   1.940  13.815   0.567 -0.0953 -0.2226 -0.1730
 4968UDC     C654643   2.038  13.704   0.553 -0.0518  0.0165  1.0182
 4968UDC     C754644   2.128  13.695   0.434 -0.9164  0.4035  1.0093
 4968UDC     C854645   2.214  13.566   0.442 -1.7312  0.6345  0.0140
 4968UDC     C954646   2.294  13.551   0.305  0.5055 -1.0795  0.9293
 4968UDC    C1054647   2.362  13.416   0.285 -0.7306 -0.0925 -0.3415
 4968UDC    C1154648   2.479  13.395   0.387 -0.3231 -0.7588 -0.1406
 4969UDC     C154649   9.838   3.873   8.293 -0.2376 -0.4528  0.0237
 4969UDC     C254650   9.775   4.005   8.358  0.7756  1.1452  0.4255
 4969UDC     C354651   9.768   4.123   8.269  0.4956 -0.0686  0.1382
 4969UDC     C454652   9.892   4.170   8.202 -0.2460  0.6734  0.0921
 4969UDC     C554653  10.010   4.193   8.290 -0.5093 -0.0416 -0.3463
 4969UDC     C654654  10.148   4.165   8.224  0.4719 -0.3319  0.3360
 4969UDC     C754655  10.252   4.203   8.334 -0.3242  0.6055  0.8825
 4969UDC     C854656  10.403   4.219   8.293 -0.9356 -0.0188 -0.2831
 4969UDC     C954657  10.517   4.237   8.400 -1.3250 -0.9230  1.4019
 4969UDC    C1054658  10.651   4.167   8.364  0.1349  0.0955  0.1264
 4969UDC    C1154659  10.757   4.184   8.475 -0.2222  0.1287 -0.3793
 4970UDC     C154660   0.902  17.306   9.780  0.7147 -0.2487  0.7662
 4970UDC     C254661   0.825  17.246   9.653 -0.0235 -0.6593 -0.9565
 4970UDC     C354662   0.732  17.350   9.575  1.1826 -0.5103  1.1961
 4970UDC     C454663   0.802  17.463   9.492 -0.4282  1.1278  0.6646
 4970UDC     C554664   0.893  17.415   9.375  0.4014 -1.0220 -0.7475
 4970UDC     C654665   1.033  17.483   9.370 -0.2205  0.6601 -0.2447
 4970UDC     C754666   1.126  17.445   9.253 -0.1630 -0.4169 -0.0827
 4970UDC     C854667   1.068  17.412   9.121 -0.4182  0.8322 -0.4789
 4970UDC     C954668   1.147  17.306   9.050  0.7525  0.0052  0.2704
 4970UDC    C1054669   1.087  17.273   8.910  0.8752 -1.2093  1.4471
 4970UDC    C1154670   1.039  17.397   8.840 -0.3572  0.5549  0.0626
 4971UDC     C154671  12.432  14.902  10.511  0.3081  0.2845 -0.6011
 4971UDC     C254672  12.377  14.936  10.653  0.1356  0.5435 -0.1834
 4971UDC     C354673  12.224  14.957  10.654  0.0163  0.2358 -1.2869
 4971UDC     C454674  12.165  15.077  10.566  0.3044  0.5272 -0.5724
 4971UDC     C554675  12.012  15.078  10.571 -0.2898 -0.9192  1.0717
 4971UDC     C654676  11.934  15.184  10.485 -0.9167  0.0414  0.1714
 4971UDC     C754677  11.782  15.179  10.516 -0.8828  0.0043 -0.7292
 4971UDC     C854678  11.768  15.230  10.661 -0.7749  0.0664  0.6912
 4971UDC     C954679  11.622  15.224  10.723  0.2729 -0.0126  0.3026
 4971UDC    C1054680  11.551  15.094  10.691 -1.1386 -0.1803  0.8115
 4971UDC    C1154681  11.406  15.118  10.723  0.1354 -0.2782 -0.2043
 4972UDC     C154682  19.308  10.089  13.794 -0.1167 -0.1498  0.4684
 4972UDC     C254683  19.407   9.968  13.823 -0.9556 -0.9287 -0.3320
 4972UDC     C354684  19.485   9.970  13.960 -0.8859 -0.1162  0.2833
 4972UDC     C454685  19.608   9.870  13.955  0.4131 -0.6686 -0.3943
 4972UDC     C554686  19.647   9.839  14.105 -0.5543 -0.2077 -0.3694
 4972UDC     C654687  19.771   9.756  14.119 -0.2061  1.5555  0.9340
 4972UDC     C754688  19.795   9.707  14.262 -0.5992 -0.2790  0.0792
 4972UDC     C854689  19.936   9.678  14.313 -0.3582  0.0062 -0.5755
 4972UDC     C954690  19.973   9.640  14.458  0.2334 -0.3399 -0.5655
 4972UDC    C1054691  19.893   9.514  14.511 -0.7668  0.2024 -0.9767
 4972UDC    C1154692  19.930   9.389  14.430 -0.9404  0.4223  0.5779
 4973UDC     C154693   9.416   7.308  10.441  0.4005  0.3058 -1.0459
 4973UDC     C254694   9.548   7.240  10.428 -0.3429 -0.2112 -0.2874
 4973UDC     C354695   9.671   7.323  10.379  0.6677 -0.0857  0.0793
 4973UDC     C454696   9.726   7.439  10.462  0.1285 -0.2712 -0.5565
 4973UDC     C554697   9.751   7.388  10.604  0.5358  0.2906 -0.0914
 4973UDC     C654698   9.878   7.301  10.621 -0.7196  0.8548  0.4292
 4973UDC     C754699   9.877   7.212  10.744  0.3611  0.7448 -0.1243
 4973UDC     C854700   9.802   7.076  10.720  0.1215  0.1500  1.1381
 4973UDC     C954701   9.769   7.013  10.857  0.0334  0.7354  0.4418
 4973UDC    C1054702   9.662   6.898  10.840 -0.5097 -0.1364  0.2592
 4973UDC    C1154703   9.708   6.782  10.747  0.6731  0.4237  0.2016
 4974UDC     C154704  14.461   1.922  19.883 -0.2806  0.7953  0.5122
 4974UDC     C254705  14.471   1.909  19.731  0.6068  0.3705 -0.7307
 4974UDC     C354706  14.527   1.774  19.691 -0.6318  1.1154  0.1304
 4974UDC     C454707  14.434   1.648  19.718  0.1002 -0.1836  0.5962
 4974UDC     C554708  14.489   1.521  19.647 -0.1434 -0.9934 -1.1747
 4974UDC     C654709  14.523   1.568  19.504  0.1453  0.7927 -0.5352
 4974UDC     C754710  14.446   1.482  19.399  0.1538  0.0815 -0.9825
 4974UDC     C854711  14.485   1.491  19.252  0.2129 -0.5642  0.7762
 4974UDC     C954712  14.499   1.636  19.192 -0.2050  0.2992 -0.2421
 4974UDC    C1054713  14.523   1.626  19.043 -0.9566  0.9450 -0.2198
 4974UDC    C1154714  14.464   1.754  18.981 -0.1062 -0.2141  0.1499
 4975UDC     C154715   8.150   4.872  12.595  0.3199 -0.6365  0.1671
 4975UDC     C254716   8.253   4.843  12.491  0.6878  0.6555  0.9865
 4975UDC     C354717   8.367   4.941  12.460 -0.6091  0.8407 -0.9929
 4975UDC     C454718   8.492   4.894  12.386  0.7345 -0.9040 -0.6167
 4975UDC     C554719   8.553   4.753  12.422  0.3726 -1.1971  0.5750
 4975UDC     C654720   8.660   4.692  12.323  0.3529  0.8626 -0.0869
 4975UDC     C754721   8.812   4.721  12.354  1.0530  0.5789  0.2176
 4975UDC     C854722   8.924   4.683  12.254 -0.0939 -0.5686 -0.3663
 4975UDC     C954723   9.069   4.672  12.310  0.7136  0.6073 -0.4148
 4975UDC    C1054724   9.074   4.531  12.365 -0.4210  0.9381  0.3831
 4975UDC    C1154725   9.052   4.425  12.256 -0.6140  0.2640 -0.9234
 4976UDC     C154726  10.663  19.507  12.216 -0.7502  0.7903 -0.0851
 4976UDC     C254727  10.658  19.584  12.350  0.4995 -0.6458  0.5817
 4976UDC     C354728  10.541  19.543  12.451 -1.0533 -0.6253  0.5771
 4976UDC     C454729  10.538  19.625  12.581  0.3134  0.3084  0.0585
 4976UDC     C554730  10.426  19.588  12.682  0.1587  0.1428  0.9381
 4976UDC     C654731  10.459  19.672  12.809 -1.6925 -0.1956  0.0524
 4976UDC     C754732  10.422  19.632  12.954  0.4023 -0.5019  0.1731
 4976UDC     C854733  10.269  19.650  12.989 -0.9502 -1.2096  0.3087
 4976UDC     C954734  10.222  19.655  13.131  0.6745  0.3628  0.4470
 4976UDC    C1054735  10.251  19.772  13.219 -0.5622 -0.3326  1.1445
 4976UDC    C1154736  10.193  19.762  13.362  1.0139  0.0601 -0.1477
 4977UDC     C154737   5.482  17.470  18.667 -0.0632  0.1844 -1.3040
 4977UDC     C254738   5.513  17.359  18.774 -0.5820  0.1903 -0.7974
 4977UDC     C354739   5.435  17.367  18.909 -0.5566 -0.2523  0.4665
 4977UDC     C454740   5.420  17.242  18.997  0.5856  0.2001 -0.2848
 4977UDC     C554741   5.565  17.192  19.034 -0.3981  0.3355  0.2111
 4977UDC     C654742   5.580  17.095  19.159  0.6007  0.6127 -0.3037
 4977UDC     C754743   5.713  17.066  19.235  0.6115  0.7006  0.5643
 4977UDC     C854744   5.812  16.951  19.194 -0.5722  0.4396 -2.0259
 4977UDC     C954745   5.940  16.942  19.286 -0.4948  0.3117  0.0132
 4977UDC    C1054746   5.955  16.793  19.300 -0.7909  0.2815  0.0402
 4977UDC    C1154747   6.069  16.752  19.390 -0.4472 -0.6762 -0.3163
 4978UDC     C154748   6.744   5.181   2.010  1.3989 -1.0248  1.4369
 4978UDC     C254749   6.782   5.251   2.142 -0.4393 -0.2969  0.5888
 4978UDC     C354750   6.927   5.307   2.139  0.0015 -0.1909  0.3329
 4978UDC     C454751   7.029   5.194   2.096 -0.6157  0.3089 -0.3239
 4978UDC     C554752   7.064   5.086   2.200 -0.4025 -0.3589  0.8141
 4978UDC     C654753   7.153   4.954   2.175  0.6824  0.5953  0.5079
 4978UDC     C754754   7.296   4.961   2.215 -0.1521  0.0337 -1.9990
 4978UDC     C854755   7.383   5.077   2.182 -1.7541 -0.3733 -0.7375
 4978UDC     C954756   7.525   5.061   2.247  0.6984 -0.3710  0.7013
 4978UDC    C1054757   7.598   5.194   2.234  0.5076 -0.4030 -0.7801
 4978UDC    C1154758   7.673   5.236   2.362  0.6992 -0.1413 -0.4429
 4979UDC     C154759  17.761   6.114   8.009 -0.1823  0.1844 -0.3468
 4979UDC     C254760  17.671   6.104   8.137 -0.5119 -0.0707 -0.7756
 4979UDC     C354761  17.660   5.953   8.183 -0.0440 -0.3522  0.3336
 4979UDC     C454762  17.583   5.867   8.082  0.2718 -0.9376 -0.0030
 4979UDC     C554763  17.447   5.912   8.028  0.6451 -0.2845  0.2868
 4979UDC     C654764  17.399   5.901   7.887  0.3645 -0.4975  0.8471
 4979UDC     C754765  17.473   6.002   7.793  0.1310  0.7687  0.2001
 4979UDC     C854766  17.413   6.051   7.664  0.8516  1.2041 -1.0336
 4979UDC     C954767  17.518   6.124   7.585 -0.4106  0.3742  0.8676
 4979UDC    C1054768  17.494   6.190   7.446 -1.0305  0.2587  0.3546
 4979UDC    C1154769  17.527   6.095   7.335 -0.7885 -0.4386  0.1549
 4980UDC     C154770  19.742   1.816   6.330 -0.6270  0.3454 -1.8423
 4980UDC     C254771  19.707   1.881   6.196  0.6450 -0.0699  0.5559
 4980UDC     C354772  19.804   1.960   6.114  1.3876 -0.0429 -0.9236
 4980UDC     C454773  19.764   1.990   5.969 -0.8909 -0.6762  0.1907
 4980UDC     C554774  19.746   1.857   5.899  0.0037  0.2826  1.2675
 4980UDC     C654775  19.763   1.896   5.747  0.3168  1.9982  0.3787
 4980UDC     C754776  19.642   1.845   5.663 -1.2888 -0.2355  0.7345
 4980UDC     C854777  19.662   1.874   5.511 -0.8480  0.3538  0.8511
 4980UDC     C954778  19.578   1.777   5.423 -1.5188  0.5491 -0.3089
 4980UDC    C1054779  19.434   1.747   5.455 -0.0431 -0.4311 -0.2499
 4980UDC    C1154780  19.360   1.649   5.358  0.6393 -0.1787 -0.4069
 4981UDC     C154781   0.708   4.667  16.271 -0.2732 -0.2579  0.1561
 4981UDC     C254782   0.701   4.813  16.233 -0.0254  0.1807  0.2225
 4981UDC     C354783   0.717   4.908  16.357  0.1577  0.5291  1.0085
 4981UDC     C454784   0.795   4.833  16.468 -0.1171 -0.6952  0.9761
 4981UDC     C554785   0.828   4.922  16.592  1.4517  1.4166 -0.4737
 4981UDC     C654786   0.898   4.839  16.699 -0.2704  0.4146  0.1305
 4981UDC     C754787   0.906   4.901  16.844 -0.2169 -0.0501  0.0487
 4981UDC     C854788   0.992   4.820  16.939  0.2726 -0.0963  0.4965
 4981UDC     C954789   1.141   4.836  16.950 -0.5052 -0.8443  0.5708
 4981UDC    C1054790   1.206   4.960  17.024  1.3643  0.0780  0.9595
 4981UDC    C1154791   1.356   4.971  16.988  0.2974 -0.2837 -0.2336
 4982UDC     C154792   6.420  13.310  11.318 -1.0547  0.0293 -0.7739
 4982UDC     C254793   6.297  13.338  11.236  0.3212 -0.4487  0.4784
 4982UDC     C354794   6.181  13.240  11.247  0.3272 -0.0036  1.2127
 4982UDC     C454795   6.089  13.254  11.367  0.7947  0.1509  0.3798
 4982UDC     C554796   5.943  13.264  11.308  0.5680  0.8461 -0.6195
 4982UDC     C654797   5.918  13.386  11.225 -0.3013 -0.3716  0.4667
 4982UDC     C754798   5.780  13.399  11.150  0.2658  1.2921 -0.2780
 4982UDC     C854799   5.767  13.525  11.063  0.1182  0.1660 -0.9915
 4982UDC     C954800   5.861  13.530  10.937 -0.5648 -0.0702 -0.2604
 4982UDC    C1054801   5.884  13.654  10.848 -0.3267 -0.2762  0.1087
 4982UDC    C1154802   5.984  13.643  10.730  0.4165 -0.1055 -0.7138
 4983UDC     C154803  11.850  14.499   8.729  0.1234 -0.9532  0.2014
 4983UDC     C254804  11.781  14.502   8.871 -1.1226  0.4094  0.1032
 4983UDC     C354805  11.898  14.463   8.967  0.6155  0.1824  0.8248
 4983UDC     C454806  11.957  14.319   8.993  0.2407  0.0417 -0.3917
 4983UDC     C554807  11.862  14.217   9.041 -0.4269  0.5433  0.3312
 4983UDC     C654808  11.895  14.062   9.041  0.5053  0.4329 -1.0719
 4983UDC     C754809  12.024  13.999   9.097  0.4925 -0.9671  1.0507
 4983UDC     C854810  12.062  13.996   9.248 -0.4347 -0.0355  0.6734
 4983UDC     C954811  12.207  13.961   9.265 -0.7796  0.5245  0.5942
 4983UDC    C1054812  12.234  13.966   9.424  0.8733  1.2403  0.8990
 4983UDC    C1154813  12.133  13.872   9.495  1.0669 -0.1544  0.5801
 4984UDC     C154814  19.497   3.266   0.067 -0.1777  0.3412 -1.0471
 4984UDC     C254815  19.645   3.231   0.057 -0.3906  1.1614  0.5618
 4984UDC     C354816  19.686   3.155  -0.076  0.4076  0.5135  0.6082
 4984UDC     C454817  19.687   3.249  -0.201  1.0238 -0.8831 -0.5478
 4984UDC     C554818  19.644   3.178  -0.332  0.4476  0.1873 -0.5549
 4984UDC     C654819  19.506   3.202  -0.390 -0.1645 -0.3405 -0.4631
 4984UDC     C754820  19.393   3.183  -0.284  0.3274  0.4118  0.5769
 4984UDC     C854821  19.257   3.182  -0.361 -0.8968 -0.1356  0.1641
 4984UDC     C954822  19.163   3.142  -0.247 -0.5372 -0.1834 -0.0434
 4984UDC    C1054823  19.022   3.165  -0.288  0.0414  0.9357  0.2815
 4984UDC    C1154824  18.935   3.064  -0.206  1.0317  0.2738  0.9369
 4985UDC     C154825  11.810  19.999   2.718 -0.0947 -0.8700  0.0745
 4985UDC     C254826  11.757  20.115   2.623 -0.6571  0.3262 -0.1584
 4985UDC     C354827  11.839  20.120   2.491  0.3310 -0.0164  0.6991
 4985UDC     C454828  11.779  20.200   2.374  1.4510  0.0007 -0.5620
 4985UDC     C554829  11.870  20.185   2.246  0.6470  0.6954  0.5706
 4985UDC     C654830  12.010  20.239   2.255 -0.9338 -0.3887 -0.2102
 4985UDC     C754831  12.062  20.268   2.113 -0.4786 -1.3401 -0.3839
 4985UDC     C854832  12.201  20.325   2.097 -0.8446  0.7447 -0.5674
 4985UDC     C954833  12.304  20.236   2.167  0.9487  0.1460 -0.8976
 4985UDC    C1054834  12.443  20.254   2.116  0.8042  0.3979  0.2638
 4985UDC    C1154835  12.543  20.150   2.183  1.4515 -0.9180 -1.3724
 4986UDC     C154836  19.665  11.293   4.113  0.2214 -0.0213  0.0324
 4986UDC     C254837  19.763  11.352   4.204  0.1204 -0.0481  0.7222
 4986UDC     C354838  19.837  11.267   4.310 -0.1157 -1.7341  1.7785
 4986UDC     C454839  19.830  11.334   4.450  0.1626  0.1310  0.6497
 4986UDC     C554840  19.682  11.327   4.499 -0.1843 -0.1580 -0.9886
 4986UDC     C654841  19.665  11.360   4.652  0.6706  0.3462 -0.3099
 4986UDC     C754842  19.556  11.447   4.699  0.4670 -0.9524  0.2993
 4986UDC     C854843  19.474  11.377   4.811 -1.1934 -0.2173 -0.0423
 4986UDC     C954844  19.364  11.464   4.872  0.0993 -0.0509 -0.7178
 4986UDC    C1054845  19.343  11.391   5.007  0.5854  0.1281 -0.5597
 4986UDC    C1154846  19.233  11.285   5.024 -0.5885  0.1510  0.2735
 4987UDC     C154847   8.971  16.635  14.102 -0.9019  0.0588  1.0375
 4987UDC     C254848   9.118  16.671  14.080 -0.1446  0.2869 -0.1526
 4987UDC     C354849   9.207  16.581  14.174  0.3331 -0.1944  1.1068
 4987UDC     C454850   9.358  16.572  14.147  0.2982  0.0445  0.0784
 4987UDC     C554851   9.397  16.657  14.023 -0.0865 -0.2956 -0.5863
 4987UDC     C654852   9.539  16.661  13.961  0.0371 -0.2648 -0.2118
 4987UDC     C754853   9.535  16.752  13.839  0.5140  0.0656 -0.6039
 4987UDC     C854854   9.497  16.703  13.697 -0.9753  0.1619 -0.6001
 4987UDC     C954855   9.462  16.814  13.597 -0.0646 -0.5170  0.4056
 4987UDC    C1054856   9.395  16.802  13.455 -0.4916 -0.0508 -0.2798
 4987UDC    C1154857   9.345  16.926  13.390  0.7849  0.0426 -0.1473
 4988UDC     C154858   4.276   9.302  18.114 -0.2887 -0.8222 -0.2338
 4988UDC     C254859   4.207   9.342  18.250 -0.5328 -0.4529 -0.4415
 4988UDC     C354860   4.061   9.382  18.226  1.1763  0.2337 -1.4077
 4988UDC     C454861   3.979   9.424  18.348 -0.3928 -0.1609 -0.9414
 4988UDC     C554862   3.828   9.447  18.351 -0.0656  0.4097  0.0084
 4988UDC     C654863   3.742   9.314  18.335 -0.4498 -0.1301 -0.8993
 4988UDC     C754864   3.594   9.340  18.329 -0.1022 -0.2584 -0.4236
 4988UDC     C854865   3.510   9.402  18.210 -0.2653 -0.2135 -0.5893
 4988UDC     C954866   3.361   9.368  18.202 -0.2196  0.3108  0.7184
 4988UDC    C1054867   3.279   9.479  18.130  0.2439  0.0427  1.0135
 4988UDC    C1154868   3.142   9.451  18.069  0.2398 -0.2094 -0.2674
 4989UDC     C154869   9.860  11.113  16.741 -0.4863 -0.1186  0.0261
 4989UDC     C254870   9.870  11.154  16.592 -0.4530  1.0087  0.2302
 4989UDC     C354871   9.738  11.153  16.520  0.0003 -0.4770 -0.3626
 4989UDC     C454872   9.755  11.150  16.365 -0.2352  0.3820 -0.9989
 4989UDC     C554873   9.878  11.230  16.317 -0.2241  0.3091  0.1008
 4989UDC     C654874   9.917  11.188  16.172  0.0892 -0.1431  0.1492
 4989UDC     C754875   9.854  11.269  16.064 -0.3449  0.1774  0.6858
 4989UDC     C854876   9.897  11.421  16.065  0.6020 -0.3135 -0.2378
 4989UDC     C954877   9.967  11.483  15.939 -0.5951 -0.5253  0.7181
 4989UDC    C1054878   9.964  11.641  15.942 -0.7566 -0.4148 -0.1684
 4989UDC    C1154879   9.943  11.697  15.803 -0.6410  0.5729  0.3042
 4990UDC     C154880  17.325   7.995   8.997 -0.5005 -1.0486  0.4056
 4990UDC     C254881  17.384   8.082   8.880  0.5606 -0.0573  0.0997
 4990UDC     C354882  17.387   8.235   8.907 -0.0311  0.3246 -0.4822
 4990UDC     C454883  17.388   8.313   8.774 -0.5394  1.5481 -0.2179
 4990UDC     C554884  17.453   8.231   8.659  0.2588  0.9008  0.6509
 4990UDC     C654885  17.463   8.292   8.521 -0.5479  0.8275  1.5538
 4990UDC     C754886  17.524   8.184   8.426  0.2313 -0.7553 -0.7413
 4990UDC     C854887  17.429   8.064   8.394 -0.3774  0.3394 -0.6640
 4990UDC     C954888  17.484   7.999   8.266  0.0120  0.8469 -0.6508
 4990UDC    C1054889  17.423   7.856   8.276  0.1297  0.6571  0.1378
 4990UDC    C1154890  17.379   7.780   8.154  0.2980  0.8353  1.0140
 4991UDC     C154891  16.890  10.138   1.495 -1.4330  0.2617  0.3816
 4991UDC     C254892  16.765  10.052   1.510  0.0805 -0.1752 -0.7176
 4991UDC     C354893  16.720   9.987   1.380  0.4851 -0.2110  0.8128
 4991UDC     C454894  16.574   9.938   1.398 -0.0441  0.9674  0.2654
 4991UDC     C554895  16.507   9.858   1.274 -0.1790  0.1091 -0.7900
 4991UDC     C654896  16.385   9.765   1.274 -0.3532 -0.2311 -0.5894
 4991UDC     C754897  16.385   9.652   1.378  0.4248  0.2401 -0.2435
 4991UDC     C854898  16.341   9.520   1.307  0.0280  0.2811  0.0033
 4991UDC     C954899  16.328   9.398   1.403 -0.0610 -0.7219 -0.4466
 4991UDC    C1054900  16.226   9.304   1.350 -0.8379 -0.0685 -0.6012
 4991UDC    C1154901  16.295   9.216   1.250  0.4516 -0.3268  0.1172
 4992UDC     C154902  17.020  10.098  19.003 -0.0021  0.2651  0.9051
 4992UDC     C254903  17.037  10.209  19.109 -1.5715 -0.3022  0.7018
 4992UDC     C354904  17.170  10.206  19.181  0.0843 -0.6034 -0.9007
 4992UDC     C454905  17.304  10.230  19.103  0.3690  0.6233 -0.2913
 4992UDC     C554906  17.392  10.104  19.082 -1.2367  1.0441  0.8896
 4992UDC     C654907  17.487  10.113  18.957 -0.6149  0.8876 -0.7610
 4992UDC     C754908  17.603  10.015  18.958  0.5073  0.6075 -0.3485
 4992UDC     C854909  17.640   9.996  19.111 -0.8905  0.7596  0.8681
 4992UDC     C954910  17.763   9.910  19.157 -0.2893  0.3193 -0.5104
 4992UDC    C1054911  17.757   9.764  19.118  0.6215  0.8597 -0.1200
 4992UDC    C1154912  17.841   9.677  19.214  0.1863 -0.6173 -0.0286
 4993UDC     C154913  10.888   9.300   4.451 -0.0480 -0.8022  0.0021
 4993UDC     C254914  10.911   9.405   4.348  0.0313 -0.6698 -0.5199
 4993UDC     C354915  10.781   9.476   4.298  0.8051  0.3603 -0.8594
 4993UDC     C454916  10.785   9.501   4.148 -0.9796 -0.0255 -0.7141
 4993UDC     C554917  10.790   9.368   4.072  0.0729 -0.1501  0.2590
 4993UDC     C654918  10.724   9.374   3.931 -0.0491  0.9686 -0.5248
 4993UDC     C754919  10.765   9.252   3.844  0.3662  0.2899 -0.2824
 4993UDC     C854920  10.723   9.228   3.694 -0.7007  1.1424 -0.5371
 4993UDC     C954921  10.589   9.271   3.625 -0.8295  1.1251 -1.5282
 4993UDC    C1054922  10.596   9.339   3.484  0.2012 -0.0276  1.0908
 4993UDC    C1154923  10.463   9.347   3.405 -0.2559  0.0853  0.9272
 4994UDC     C154924   6.185  12.006  10.784  0.0769  0.2402  0.5664
 4994UDC     C254925   6.034  12.028  10.762 -0.1627  0.9225  0.8531
 4994UDC     C354926   5.970  11.977  10.634 -1.4361  0.1757 -0.7289
 4994UDC     C454927   5.818  11.972  10.613 -0.5695  0.2592 -0.4813
 4994UDC     C554928   5.765  11.959  10.469 -0.4384 -0.4353 -1.5743
 4994UDC     C654929   5.761  11.818  10.398 -0.0130 -0.0141  0.8235
 4994UDC     C754930   5.748  11.857  10.243 -0.1632 -0.7357 -0.5415
 4994UDC     C854931   5.677  11.985  10.200  0.5415 -1.2402 -0.5915
 4994UDC     C954932   5.577  11.956  10.087 -0.5242 -0.6054  0.6575
 4994UDC    C1054933   5.568  12.076   9.992  0.3275 -1.0073 -0.3017
 4994UDC    C1154934   5.461  12.053   9.891  0.3707  0.8194  0.1446
 4995UDC     C154935   1.759   9.844   3.893  0.2554  0.0570 -0.2236
 4995UDC     C254936   1.810   9.979   3.834  1.0118  0.0447  0.7311
 4995UDC     C354937   1.748  10.112   3.865 -0.2828  0.0275  0.7747
 4995UDC     C454938   1.597  10.124   3.854  0.1091 -0.6612  0.0139
 4995UDC     C554939   1.570  10.157   3.713 -0.2740  0.0602  0.3053
 4995UDC     C654940   1.617  10.300   3.712 -0.6760 -0.2236 -0.5426
 4995UDC     C754941   1.603  10.393   3.590  0.1952  0.0091  0.0191
 4995UDC     C854942   1.681  10.524   3.619  0.7477 -0.9173  0.4079
 4995UDC     C954943   1.827  10.497   3.651  0.4375  1.4962 -0.0916
 4995UDC    C1054944   1.904  10.605   3.731 -0.6841 -0.1799 -0.1314
 4995UDC    C1154945   1.830  10.648   3.861 -0.3166  0.5428  1.0309
 4996UDC     C154946   8.199   6.019  18.385 -0.3723  0.2510 -0.6175
 4996UDC     C254947   8.218   5.870  18.373 -0.9420 -0.1766 -0.3427
 4996UDC     C354948   8.228   5.808  18.236 -0.0859  0.7134  0.2825
 4996UDC     C454949   8.373   5.760  18.204 -0.0433  0.9661  0.0610
 4996UDC     C554950   8.390   5.672  18.078 -0.0206  0.1210 -0.1833
 4996UDC     C654951   8.356   5.520  18.098  0.0401  0.1826 -0.1824
 4996UDC     C754952   8.390   5.432  17.980 -0.7387 -0.9666  1.0958
 4996UDC     C854953   8.351   5.291  18.003 -0.7415 -0.3613  1.3502
 4996UDC     C954954   8.393   5.212  18.122 -0.2440  0.8479 -0.0027
 4996UDC    C1054955   8.342   5.068  18.114  0.5825  0.2516 -0.2575
 4996UDC    C1154956   8.326   5.008  18.253 -0.1943 -1.2336 -0.0915
 4997UDC     C154957  10.378   8.593   9.885  0.7203 -0.9027  0.0531
 4997UDC     C254958  10.471   8.559   9.773 -0.5639  0.8534 -0.1773
 4997UDC     C354959  10.482   8.673   9.671  0.9532  0.5479 -0.3360
 4997UDC     C454960  10.572   8.792   9.718  0.4964 -0.2925  0.2032
 4997UDC     C554961  10.545   8.860   9.852  0.4096 -0.0990  0.1849
 4997UDC     C654962  10.408   8.919   9.858  0.6114 -0.5413  0.2503
 4997UDC     C754963  10.354   8.963   9.997 -1.5286 -0.1870 -0.0992
 4997UDC     C854964  10.208   8.998   9.988  0.4460 -0.2846  0.2538
 4997UDC     C954965  10.121   8.896   9.926 -0.6845 -0.4620  0.1912
 4997UDC    C1054966   9.973   8.922   9.959 -0.8813  0.3697  0.5498
 4997UDC    C1154967   9.962   8.846  10.090 -0.0518 -0.4440  1.0895
 4998UDC     C154968  17.316  19.878  15.277 -0.0552  0.1971  0.5440
 4998UDC     C254969  17.316  19.982  15.158 -0.0430  0.0095  0.8596
 4998UDC     C354970  17.167  20.021  15.131 -0.8369 -0.4103  0.4869
 4998UDC     C454971  17.141  20.141  15.033  0.2934  1.0546  0.3740
 4998UDC     C554972  16.997  20.161  14.984 -0.0149  0.6318 -1.4005
 4998UDC     C654973  16.938  20.042  14.917 -0.4342  0.0334  0.4899
 4998UDC     C754974  16.794  20.063  14.862 -0.4662 -0.0633  1.0593
 4998UDC     C854975  16.697  19.956  14.909 -0.5104  1.0612 -0.0828
 4998UDC     C954976  16.712  19.823  14.835 -0.2062  0.3218 -0.3644
 4998UDC    C1054977  16.637  19.700  14.903 -0.0151 -1.2016  0.3504
 4998UDC    C1154978  16.648  19.569  14.824  0.1890  0.2412  0.0693
 4999UDC     C154979  15.579  15.738   1.545 -0.0709  0.6253  0.8630
 4999UDC     C254980  15.631  15.595   1.561 -0.9889 -0.1060 -0.3133
 4999UDC     C354981  15.779  15.578   1.614 -0.0518  1.1098  0.3518
 4999UDC     C454982  15.880  15.674   1.549 -0.4435  0.0672 -0.3306
 4999UDC     C554983  16.023  15.620   1.541  0.4896  1.7476 -0.5097
 4999UDC     C654984  16.123  15.689   1.448  0.7859  0.9798  1.8847
 4999UDC     C754985  16.264  15.651   1.464 -0.0827 -0.1735 -0.2585
 4999UDC     C854986  16.357  15.702   1.355 -0.2750  0.6076 -0.7070
 4999UDC     C954987  16.500  15.720   1.411  1.0872  0.3006  0.1173
 4999UDC    C1054988  16.629  15.728   1.323  0.3206 -0.4780 -0.4082
 4999UDC    C1154989  16.654  15.664   1.190  0.2444  0.5345  0.2371
 5000UDC     C154990  16.092   4.266   9.408 -0.3489  0.5469  0.0367
 5000UDC     C254991  16.183   4.152   9.357 -1.1276  0.5305 -0.8570
 5000UDC     C354992  16.278   4.089   9.458 -0.0968 -0.3690  0.2075
 5000UDC     C454993  16.313   3.950   9.430  0.1933  0.2676 -0.1225
 5000UDC     C554994  16.380   3.888   9.549  0.2599 -0.0957 -0.6270
 5000UDC     C654995  16.426   3.739   9.534  0.0900 -0.0432  0.8749
 5000UDC     C754996  16.572   3.739   9.484  0.2438  0.2833  1.1121
 5000UDC     C854997  16.637   3.612   9.417 -0.2563  0.5248 -0.1820
 5000UDC     C954998  16.721   3.649   9.296 -0.4982  0.9036 -0.1092
 5000UDC    C1054999  16.852   3.558   9.285  0.7477 -1.2018 -0.0223
 5000UDC    C1155000  16.965   3.642   9.222 -0.3603  0.3122 -0.5509
 5001UDC     C155001   4.871  10.000  13.498 -0.0842 -0.3443 -0.5057
 5001UDC     C255002   4.729   9.953  13.545  0.4940  0.3659  0.6771
 5001UDC     C355003   4.692  10.002  13.689 -0.2024 -0.2106 -0.2090
 5001UDC     C455004   4.540  10.033  13.677 -0.1460  0.6689 -0.6446
 5001UDC     C555005   4.455  10.024  13.805  0.4178  1.1580  1.2082
 5001UDC     C655006   4.302  10.000  13.759  0.0024 -1.0078  1.2161
 5001UDC     C755007   4.208  10.117  13.791  0.7070 -0.1336  0.6648
 5001UDC     C855008   4.225  10.154  13.935  0.3241  0.2117  0.0714
 5001UDC     C955009   4.125  10.255  13.996 -0.4905 -0.7129 -0.3080
 5001UDC    C1055010   4.149  10.294  14.144 -0.1133 -0.5403 -0.6420
 5001UDC    C1155011   4.072  10.202  14.244  0.4658  0.6783 -0.7168
 5002UDC     C155012   9.692  15.820  15.258  0.0837 -1.1225 -0.4475
 5002UDC     C255013   9.832  15.852  15.211  0.1053 -1.1902 -0.9389
 5002UDC     C355014   9.854  15.784  15.072 -0.2091  0.3129  0.0642
 5002UDC     C455015   9.730  15.820  14.983  0.3768  0.7662  0.5507
 5002UDC     C555016   9.747  15.756  14.838  0.9517 -0.2679 -0.5878
 5002UDC     C655017   9.608  15.777  14.760  0.2746 -0.2229  0.5110
 5002UDC     C755018   9.581  15.926  14.799  0.9636  0.0473 -0.6297
 5002UDC     C855019   9.480  15.999  14.714  0.2084  0.8000  0.8629
 5002UDC     C955020   9.424  16.116  14.797  0.3572  1.3152 -0.7937
 5002UDC    C1055021   9.335  16.223  14.725  0.4318  0.1266 -0.1095
 5002UDC    C1155022   9.422  16.342  14.667  0.5124 -0.7790  0.4982
 5003UDC     C155023   8.091   8.864  16.665 -0.2396  0.1846 -0.3162
 5003UDC     C255024   8.023   8.768  16.572  1.9050  0.0322 -0.5633
 5003UDC     C355025   8.092   8.640  16.522  0.1998  0.0394  0.4655
 5003UDC     C455026   7.988   8.563  16.430  0.0029 -0.3109  0.3666
 5003UDC     C555027   8.071   8.493  16.318  1.0044 -0.4301 -0.3603
 5003UDC     C655028   8.136   8.361  16.352 -0.1878 -0.6197  0.4040
 5003UDC     C755029   8.037   8.255  16.325  0.5095  0.4227  0.6714
 5003UDC     C855030   7.970   8.267  16.190 -1.1225  0.0735 -0.2152
 5003UDC     C955031   7.963   8.133  16.113 -1.4357  0.0393 -0.2951
 5003UDC    C1055032   7.908   8.151  15.972 -0.7592  0.2465 -0.5397
 5003UDC    C1155033   7.912   8.022  15.898  0.3771 -0.3601  0.4264
 5004UDC     C155034   9.814   7.368  11.936 -0.7264  0.5456  0.2509
 5004UDC     C255035   9.888   7.348  12.073  0.8500  0.0787 -0.2709
 5004UDC     C355036  10.026   7.419  12.100 -0.6365  0.2295 -0.1982
 5004UDC     C455037  10.007   7.577  12.096  0.2466 -0.2459  0.2164
 5004UDC     C555038   9.908   7.634  12.198  0.3566 -0.0883  0.3130
 5004UDC     C655039   9.975   7.637  12.338  0.2432  0.5234  0.3492
 5004UDC     C755040  10.112   7.704  12.345  0.5628 -0.6986  0.2591
 5004UDC     C855041  10.140   7.772  12.479  0.8063  0.6593 -0.7942
 5004UDC     C955042  10.294   7.805  12.484 -0.0650  0.0714  0.0732
 5004UDC    C1055043  10.401   7.698  12.434  0.1122 -0.1423  0.0848
 5004UDC    C1155044  10.546   7.744  12.473 -0.7632 -0.5421 -0.7491
 5005UDC     C155045  14.280  11.374   7.993  0.5937  0.1434  0.3254
 5005UDC     C255046  14.131  11.408   8.019  0.5979 -0.9844 -0.7324
 5005UDC     C355047  14.065  11.503   7.915 -0.3653  0.5119 -0.4696
 5005UDC     C455048  14.030  11.396   7.810 -0.1892 -0.1402 -1.0095
 5005UDC     C555049  13.917  11.441   7.717  0.6858  0.0080 -1.1845
 5005UDC     C655050  13.893  11.317   7.624  0.6311 -0.0573 -0.0922
 5005UDC     C755051  13.778  11.342   7.523 -0.4290 -0.7523  0.5813
 5005UDC     C855052  13.793  11.246   7.402  0.3001  0.1940 -0.6686
 5005UDC     C955053  13.708  11.239   7.277 -0.4473 -0.3731  0.4143
 5005UDC    C1055054  13.739  11.135   7.165 -1.6848  0.5447  0.4122
 5005UDC    C1155055  13.897  11.142   7.135  0.4593 -0.5386 -0.4794
 5006UDC     C155056  17.124   6.549  10.934 -0.2103  0.3844  0.2482
 5006UDC     C255057  17.068   6.632  11.046  0.7885  0.1750 -0.0359
 5006UDC     C355058  17.166   6.716  11.130 -0.2192 -0.2233 -1.6807
 5006UDC     C455059  17.121   6.846  11.198 -0.2536 -0.5015 -0.8013
 5006UDC     C555060  17.062   6.838  11.343  0.7271  0.0904 -0.3473
 5006UDC     C655061  17.013   6.981  11.384 -0.5292 -0.7580  0.0929
 5006UDC     C755062  17.122   7.045  11.475  0.3514  0.3030  0.0306
 5006UDC     C855063  17.087   7.187  11.525  0.5029 -0.9146  0.2293
 5006UDC     C955064  17.168   7.305  11.458  0.5625  0.0563  0.3902
 5006UDC    C1055065  17.319   7.316  11.494  0.3235 -0.1553 -0.1093
 5006UDC    C1155066  17.376   7.443  11.426  1.3729 -1.1373 -0.6300
 5007UDC     C155067  15.579   5.347   8.764 -0.1257 -0.1172 -0.1581
 5007UDC     C255068  15.661   5.317   8.644 -0.8315 -0.3902  0.2864
 5007UDC     C355069  15.727   5.443   8.578 -0.0782  0.3795 -0.5634
 5007UDC     C455070  15.664   5.491   8.448  0.0720 -0.8651  0.4024
 5007UDC     C555071  15.586   5.630   8.494  1.3529  0.0224  0.6893
 5007UDC     C655072  15.427   5.622   8.500 -1.4544 -0.0885  0.5883
 5007UDC     C755073  15.352   5.635   8.367  0.2883  0.6191 -0.1169
 5007UDC     C855074  15.207   5.604   8.397  0.5870  0.2574 -0.6467
 5007UDC     C955075  15.108   5.646   8.285  0.1488 -0.4156  0.8438
 5007UDC    C1055076  15.171   5.593   8.155  0.1454 -0.4663  0.1249
 5007UDC    C1155077  15.086   5.599   8.027 -0.3813 -0.0525 -0.9015
 5008UDC     C155078   8.207   0.672  17.743 -0.3431  0.1953  0.5725
 5008UDC     C255079   8.247   0.711  17.887 -0.0510  0.4718  0.3490
 5008UDC     C355080   8.403   0.726  17.902  1.0588  0.0761 -1.1375
 5008UDC     C455081   8.448   0.796  18.039  0.6645  0.8530 -0.0375
 5008UDC     C555082   8.365   0.926  18.077  0.0083 -0.2774  0.3647
 5008UDC     C655083   8.435   1.051  18.018  1.1723  0.1217  0.1760
 5008UDC     C755084   8.332   1.137  17.941 -0.6226 -1.1377  0.6466
 5008UDC     C855085   8.223   1.199  18.031 -0.4522  0.1252  0.0319
 5008UDC     C955086   8.261   1.333  18.079 -0.1464 -0.5937 -0.9603
 5008UDC    C1055087   8.149   1.442  18.067  0.0320 -0.4249 -0.0915
 5008UDC    C1155088   8.187   1.579  18.136  0.1520  0.8209 -0.7688
 5009UDC     C155089  14.732   5.320  16.664 -0.2296  0.4662  0.0813
 5009UDC     C255090  14.870   5.328  16.727 -0.1859 -0.1152 -0.5904
 5009UDC     C355091  14.949   5.207  16.782 -0.5352  0.0837 -0.8276
 5009UDC     C455092  15.025   5.121  16.675 -0.5230 -0.1374 -0.0571
 5009UDC     C555093  15.129   5.032  16.733  0.1144 -0.5236 -0.7195
 5009UDC     C655094  15.250   5.046  16.638 -0.1464  1.0943 -0.2764
 5009UDC     C755095  15.279   5.189  16.577  0.1678  0.3238 -0.5772
 5009UDC     C855096  15.365   5.160  16.453 -0.7772 -0.7822  0.6646
 5009UDC     C955097  15.515   5.155  16.477 -1.1812  0.1799 -0.4578
 5009UDC    C1055098  15.620   5.067  16.408 -1.0159 -0.6769 -0.0555
 5009UDC    C1155099  15.760   5.112  16.436 -0.2728 -0.6264 -0.6472
 5010UDC     C155100  16.045   2.620  11.164 -0.9833  0.4889  0.5411
 5010UDC     C255101  15.999   2.605  11.019  0.0691 -0.3583  0.4052
 5010UDC     C355102  16.059   2.698  10.910 -0.3321 -0.3971 -0.6289
 5010UDC     C455103  16.124   2.631  10.793  0.1829  0.5245 -0.5767
 5010UDC     C555104  16.201   2.729  10.701  0.0920 -0.3845  0.7388
 5010UDC     C655105  16.256   2.677  10.567 -0.2596 -0.1609  0.6154
 5010UDC     C755106  16.330   2.776  10.469  0.4607  0.3156  0.1427
 5010UDC     C855107  16.362   2.716  10.326  0.4269 -0.4824 -0.2686
 5010UDC     C955108  16.434   2.577  10.328  0.3097  0.6843 -0.2710
 5010UDC    C1055109  16.371   2.501  10.209 -0.0111  1.3528  0.2289
 5010UDC    C1155110  16.380   2.343  10.213  0.1505  0.5788 -0.1583
 5011UDC     C155111   1.109   1.087  10.142  0.7838  1.0537 -0.1874
 5011UDC     C255112   1.221   1.017  10.201 -0.0137  0.0232 -0.8228
 5011UDC     C355113   1.197   0.981  10.349 -0.6278  0.1556  0.2964
 5011UDC     C455114   1.312   0.963  10.450  1.0393 -0.9949  0.6706
 5011UDC     C555115   1.390   0.831  10.440  0.6484  0.5286 -0.0569
 5011UDC     C655116   1.539   0.862  10.442 -0.4768 -0.3209  0.9688
 5011UDC     C755117   1.611   0.891  10.308  0.7190 -0.5300  1.1502
 5011UDC     C855118   1.747   0.956  10.322  0.7631 -1.0116 -0.4838
 5011UDC     C955119   1.737   1.090  10.396  0.4334  0.0704  0.0491
 5011UDC    C1055120   1.856   1.184  10.373 -0.2775  0.7124  0.5861
 5011UDC    C1155121   1.850   1.311  10.459 -0.1496  0.8910 -0.3652
 5012UDC     C155122   8.111  19.322  11.995  0.2047  0.8385  0.6449
 5012UDC     C255123   8.057  19.175  11.996  0.5921 -0.9338 -0.8880
 5012UDC     C355124   8.016  19.141  11.856  1.0176  0.4651 -0.2216
 5012UDC     C455125   7.875  19.086  11.840  0.1157  0.7058  0.1725
 5012UDC     C555126   7.844  18.966  11.928  0.4037  0.6696 -0.3431
 5012UDC     C655127   7.702  18.902  11.911 -0.7107 -0.6178 -1.0049
 5012UDC     C755128   7.644  18.863  11.778  0.5352  0.1164 -0.2501
 5012UDC     C855129   7.506  18.931  11.743 -0.8934  0.3231 -0.4708
 5012UDC     C955130   7.408  18.854  11.646 -0.5804  0.4914  0.1232
 5012UDC    C1055131   7.260  18.826  11.688  0.2357 -0.9173  0.4656
 5012UDC    C1155132   7.156  18.899  11.603 -0.0677  0.0927 -0.8601
 5013UDC     C155133   2.736  10.294   9.545 -0.3336  0.0962 -0.2795
 5013UDC     C255134   2.589  10.280   9.561 -0.2298  0.0124  0.5649
 5013UDC     C355135   2.522  10.408   9.523  0.9474 -0.5940  1.1977
 5013UDC     C455136   2.371  10.419   9.563  0.5195 -0.4308 -0.1479
 5013UDC     C555137   2.275  10.325   9.480  0.0411  0.5561 -0.4466
 5013UDC     C655138   2.124  10.320   9.483  1.0032  0.4741  0.9354
 5013UDC     C755139   2.059  10.235   9.369 -0.6045  0.8804 -0.0934
 5013UDC     C855140   1.921  10.167   9.414  0.1640  0.8242 -0.3976
 5013UDC     C955141   1.828  10.133   9.298  1.5611  0.6061  0.5956
 5013UDC    C1055142   1.762  10.269   9.259 -0.0278 -0.2897 -0.2319
 5013UDC    C1155143   1.643  10.308   9.351  0.3508  0.8741  0.1382
 5014UDC     C155144  10.961  12.206  19.517 -0.2683  0.1800  0.4777
 5014UDC     C255145  11.094  12.280  19.547 -0.0780  0.9807  0.5219
 5014UDC     C355146  11.088  12.372  19.671 -0.3389 -0.2209  0.4474
 5014UDC     C455147  10.984  12.488  19.676  0.3679 -0.2950  0.2439
 5014UDC     C555148  10.952  12.529  19.821 -0.7412  0.3342  1.6427
 5014UDC     C655149  10.894  12.417  19.908  0.4366  0.9618 -0.1444
 5014UDC     C755150  10.736  12.414  19.916 -0.1676 -0.1358  1.2391
 5014UDC     C855151  10.678  12.562  19.938 -0.1973  0.1022 -0.3989
 5014UDC     C955152  10.550  12.584  20.029 -1.1904  2.0235 -0.2408
 5014UDC    C1055153  10.449  12.463  20.046 -0.2584 -0.4544  0.0805
 5014UDC    C1155154  10.518  12.385  20.156  0.4564  1.2843 -0.0391
 5015UDC     C155155  19.514  11.996  16.920  0.5296 -0.2810  0.8756
 5015UDC     C255156  19.657  11.992  16.986 -0.4656  0.7464 -0.3622
 5015UDC     C355157  19.668  11.919  17.121 -0.3160 -0.2082  0.6581
 5015UDC     C455158  19.635  12.032  17.216 -0.1004 -0.6573  0.2808
 5015UDC     C555159  19.708  12.008  17.352 -0.3793 -0.3698  0.1148
 5015UDC     C655160  19.859  11.982  17.345  1.3710 -0.2004  0.4891
 5015UDC     C755161  19.952  11.957  17.463  0.4674  0.7438 -0.1149
 5015UDC     C855162  20.092  11.923  17.430 -0.3765  0.2253 -0.1353
 5015UDC     C955163  20.093  11.800  17.341  0.3555  0.7849  0.3405
 5015UDC    C1055164  20.056  11.652  17.380 -0.4329 -0.5234  0.1018
 5015UDC    C1155165  19.988  11.555  17.278  0.0364 -0.4396  0.7738
 5016UDC     C155166  19.285  15.783   1.205  0.0889  0.9381 -0.3983
 5016UDC     C255167  19.329  15.929   1.184  0.1034 -0.0546  0.1478
 5016UDC     C355168  19.330  15.975   1.038  0.0267 -0.0937 -0.6964
 5016UDC     C455169  19.350  16.124   1.004 -1.8866 -0.7621 -0.0132
 5016UDC     C555170  19.352  16.138   0.856 -0.3162 -0.4278  0.8857
 5016UDC     C655171  19.434  16.022   0.779  1.0000  0.4333 -0.0195
 5016UDC     C755172  19.357  15.951   0.668 -0.7138 -1.1843 -1.2215
 5016UDC     C855173  19.332  16.053   0.546 -1.0117 -0.9700 -0.6950
 5016UDC     C955174  19.193  16.090   0.488 -0.2824  0.0764 -0.2233
 5016UDC    C1055175  19.136  15.989   0.386  0.8215 -0.9159 -2.3984
 5016UDC    C1155176  19.234  15.949   0.278 -1.0432 -0.2103  0.4692
 5017UDC     C155177   3.347  18.364   0.460 -0.6502 -0.3728 -0.0437
 5017UDC     C255178   3.352  18.213   0.464 -0.1923 -0.0397  0.5576
 5017UDC     C355179   3.268  18.127   0.364 -0.9019 -0.0585  1.1746
 5017UDC     C455180   3.261  17.981   0.394  0.5357  0.7045  1.2299
 5017UDC     C555181   3.148  17.934   0.293  0.9992  0.4388 -1.4071
 5017UDC     C655182   3.149  17.790   0.238 -0.1044 -0.3908  0.0308
 5017UDC     C755183   3.159  17.668   0.335 -0.8527  0.4812  0.7568
 5017UDC     C855184   3.300  17.589   0.341  0.2282 -1.0318 -0.8860
 5017UDC     C955185   3.308  17.456   0.421  0.6831 -0.1311 -1.0851
 5017UDC    C1055186   3.431  17.382   0.471  0.5412 -0.0578  0.5463
 5017UDC    C1155187   3.487  17.295   0.356 -1.0906  0.2872 -0.0889
 5018UDC     C155188  11.169  18.667   6.416  0.3885 -0.4935  0.5189
 5018UDC     C255189  11.266  18.572   6.484 -0.7862 -1.0188 -0.0806
 5018UDC     C355190  11.216  18.496   6.606  0.8329 -0.4818  0.1014
 5018UDC     C455191  11.168  18.612   6.705  0.2262  0.1044 -0.0700
 5018UDC     C555192  11.090  18.571   6.827 -0.7303 -0.5236  0.8193
 5018UDC     C655193  11.040  18.671   6.933 -1.1128 -0.0088 -0.2561
 5018UDC     C755194  11.132  18.797   6.941  0.7658  0.0767  1.1023
 5018UDC     C855195  11.079  18.935   6.985 -0.7721 -0.7574 -0.1800
 5018UDC     C955196  10.979  19.010   6.889 -0.4574 -1.0462 -1.6050
 5018UDC    C1055197  10.960  19.156   6.940 -0.1642  0.0252 -0.1865
 5018UDC    C1155198  10.894  19.261   6.855 -0.3006 -0.0805  0.8100
 5019UDC     C155199  17.230  11.540  15.069  0.1662 -0.2708  0.9002
 5019UDC     C255200  17.120  11.457  15.137 -0.7453 -0.9077 -0.5124
 5019UDC     C355201  17.109  11.493  15.290  0.6757 -0.2086  0.5216
 5019UDC     C455202  17.240  11.504  15.356 -0.0691 -0.3152 -0.2463
 5019UDC     C555203  17.225  11.493  15.511  0.5350 -0.7660 -0.8748
 5019UDC     C655204  17.324  11.537  15.621 -0.9815  0.5655 -0.6478
 5019UDC     C755205  17.273  11.479  15.765 -1.6289  0.3387  0.1237
 5019UDC     C855206  17.353  11.349  15.805  0.6040  0.1613 -0.5787
 5019UDC     C955207  17.508  11.369  15.795  0.5577 -0.1835 -1.0798
 5019UDC    C1055208  17.593  11.279  15.884  0.1180 -0.7523 -1.2677
 5019UDC    C1155209  17.511  11.173  15.961  0.0448 -0.4091  0.2560
 5020UDC     C155210   3.362  15.225   1.217  0.7352 -0.2259  0.5849
 5020UDC     C255211   3.414  15.244   1.357 -0.5157 -0.1133 -0.2041
 5020UDC     C355212   3.555  15.312   1.373 -0.2614  0.3601  0.0619
 5020UDC     C455213   3.568  15.430   1.273 -0.0084  0.5505 -0.7020
 5020UDC     C555214   3.526  15.557   1.349 -0.6147  0.2879  0.3050
 5020UDC     C655215   3.589  15.560   1.492 -0.5507 -0.4459  0.4166
 5020UDC     C755216   3.727  15.630   1.462  0.4951 -0.3919  0.4910
 5020UDC     C855217   3.718  15.788   1.446 -0.2046  1.4080  0.0416
 5020UDC     C955218   3.806  15.889   1.531 -0.8304 -0.9348 -0.1730
 5020UDC    C1055219   3.798  16.024   1.457  0.0175  0.2915 -0.3603
 5020UDC    C1155220   3.865  16.124   1.557 -0.4653  0.0453  0.2297
 5021UDC     C155221   1.233  17.442  12.963 -0.5927  0.0050 -0.2525
 5021UDC     C255222   1.331  17.398  12.850  0.4244 -1.0171  0.0153
 5021UDC     C355223   1.472  17.420  12.898  0.3292  0.4856  0.1607
 5021UDC     C455224   1.509  17.320  13.013  1.0696 -0.0406 -1.3114
 5021UDC     C555225   1.534  17.170  12.966  0.7958  0.4378  0.5486
 5021UDC     C655226   1.653  17.126  12.888 -0.3839  0.2759  0.1350
 5021UDC     C755227   1.639  16.984  12.826 -0.1138  0.4190  0.3364
 5021UDC     C855228   1.774  16.920  12.788 -0.4925 -0.1650  0.7356
 5021UDC     C955229   1.761  16.777  12.747  0.5665  0.4270 -0.0757
 5021UDC    C1055230   1.882  16.700  12.694 -0.1456 -0.2548 -0.8619
 5021UDC    C1155231   1.942  16.759  12.557  0.6772 -0.0486  0.7538
 5022UDC     C155232  18.625  11.240  19.600 -0.9949  0.9611  1.2848
 5022UDC     C255233  18.705  11.310  19.706  0.5898 -0.2831  1.3197
 5022UDC     C355234  18.716  11.272  19.860  0.2000  0.7998  0.5855
 5022UDC     C455235  18.771  11.123  19.861  0.3761 -0.4401  0.3674
 5022UDC     C555236  18.785  11.062  20.003 -0.7051 -0.4799  0.1324
 5022UDC     C655237  18.652  10.989  20.035  0.1096  0.1048  0.1771
 5022UDC     C755238  18.674  10.901  20.160  0.1245 -0.0748 -0.3036
 5022UDC     C855239  18.562  10.799  20.178 -0.0150  0.2996  0.0117
 5022UDC     C955240  18.556  10.718  20.307 -0.3789 -0.1822 -1.1069
 5022UDC    C1055241  18.456  10.600  20.293  0.1446 -0.2091 -0.9797
 5022UDC    C1155242  18.486  10.501  20.184 -0.1601 -0.0785 -0.2913
 5023UDC     C155243  12.432   3.571   1.183 -0.3435  0.1993 -0.1648
 5023UDC     C255244  12.572   3.632   1.159  0.5527  0.1402  0.7566
 5023UDC     C355245  12.603   3.746   1.265 -1.0457  0.3957  0.0291
 5023UDC     C455246  12.533   3.881   1.251  0.2755  0.4633 -0.2013
 5023UDC     C555247  12.487   3.942   1.386 -0.2701  0.0920  0.5403
 5023UDC     C655248  12.361   3.893   1.457 -1.1161  0.1248 -1.3972
 5023UDC     C755249  12.325   3.983   1.584  0.4513 -1.2152 -0.9082
 5023UDC     C855250  12.437   3.996   1.687 -1.0752  0.1554  0.4579
 5023UDC     C955251  12.421   4.084   1.808  0.0977 -0.3073  0.2612
 5023UDC    C1055252  12.538   4.179   1.805 -0.0444 -1.2425  0.2620
 5023UDC    C1155253  12.527   4.319   1.872 -0.9424  0.6123  0.2111
 5024UDC     C155254   7.069   5.047   8.275 -0.4795  0.8987  0.6668
 5024UDC     C255255   7.174   4.991   8.373  0.8420 -0.9748 -0.5941
 5024UDC     C355256   7.282   5.084   8.440  0.6702  0.7047  0.9347
 5024UDC     C455257   7.384   5.002   8.521  0.8750 -0.9981 -0.0998
 5024UDC     C555258   7.442   4.879   8.453 -0.1134 -0.0191 -0.8139
 5024UDC     C655259   7.525   4.812   8.568  0.2862  1.0466 -0.1333
 5024UDC     C755260   7.621   4.889   8.662 -0.2194 -0.0185  0.4502
 5024UDC     C855261   7.762   4.901   8.626  0.0194 -0.1112 -0.1516
 5024UDC     C955262   7.849   4.984   8.724  0.4727 -0.8300 -1.0899
 5024UDC    C1055263   7.820   4.946   8.874 -0.9627 -0.5223  0.4395
 5024UDC    C1155264   7.827   5.067   8.969  0.4978 -0.4549 -0.4647
 5025UDC     C155265  19.273  12.853  13.123 -0.2752  1.1286  0.1128
 5025UDC     C255266  19.180  12.745  13.165 -0.1657  0.3664 -0.4950
 5025UDC     C355267  19.107  12.753  13.296 -0.2526  0.3910 -0.2896
 5025UDC     C455268  19.078  12.610  13.349 -0.2310  0.2583 -0.6405
 5025UDC     C555269  18.999  12.520  13.257 -0.2175 -0.2981 -0.5586
 5025UDC     C655270  18.972  12.368  13.268 -0.4942 -0.4421 -0.4774
 5025UDC     C755271  19.087  12.261  13.249  0.0325  0.4765  0.4652
 5025UDC     C855272  19.038  12.128  13.309  0.0927  0.9235  0.6327
 5025UDC     C955273  18.981  12.142  13.450  0.6029 -0.2957  0.6180
 5025UDC    C1055274  18.873  12.032  13.483  0.1191 -0.1937  0.6727
 5025UDC    C1155275  18.783  12.035  13.611 -0.1546  0.3971 -0.0030
 5026UDC     C155276  19.213  14.672   5.199  0.8072 -0.4687 -0.4544
 5026UDC     C255277  19.074  14.666   5.268  0.8869  1.3314  1.1145
 5026UDC     C355278  18.946  14.649   5.178  0.5081  0.3429 -0.8629
 5026UDC     C455279  18.961  14.732   5.051  0.6313  0.4839  0.0348
 5026UDC     C555280  18.922  14.653   4.925  0.6864  0.6475  1.7570
 5026UDC     C655281  18.904  14.715   4.785 -0.2986  1.1397 -0.7266
 5026UDC     C755282  18.815  14.621   4.701 -0.2070  1.6889  0.0415
 5026UDC     C855283  18.673  14.631   4.748 -0.3484  0.4471 -0.6373
 5026UDC     C955284  18.585  14.613   4.623 -0.8347 -0.1148  0.5113
 5026UDC    C1055285  18.436  14.617   4.644 -0.0830  0.8537  0.0573
 5026UDC    C1155286  18.358  14.641   4.524 -0.1660  0.5201  0.1756
 5027UDC     C155287   4.767  12.455   6.454  0.5122 -0.5723  0.3439
 5027UDC     C255288   4.694  12.425   6.326  0.6745  0.7454 -0.1371
 5027UDC     C355289   4.739  12.515   6.209 -0.8227 -0.7756  0.1373
 5027UDC     C455290   4.658  12.474   6.082  0.5119 -0.1717 -0.2001
 5027UDC     C555291   4.724  12.377   5.982 -0.2462  0.2196  0.5530
 5027UDC     C655292   4.705  12.428   5.833  0.1763  0.3669  0.4767
 5027UDC     C755293   4.660  12.583   5.832  0.4664  0.6989  0.1491
 5027UDC     C855294   4.665  12.650   5.698  1.1080  0.2608 -0.2957
 5027UDC     C955295   4.635  12.801   5.674 -0.3947  0.7416 -0.3948
 5027UDC    C1055296   4.492  12.850   5.705  0.1414  0.4819  0.7764
 5027UDC    C1155297   4.387  12.756   5.641 -0.0355  0.1197  1.2564
 5028UDC     C155298   7.385  12.467   5.854 -0.3628 -0.9997  0.6495
 5028UDC     C255299   7.526  12.452   5.812 -0.7264 -1.2667  0.4357
 5028UDC     C355300   7.620  12.537   5.899  1.0088 -0.5866  0.1017
 5028UDC     C455301   7.641  12.668   5.824 -0.4495  0.3194 -0.0250
 5028UDC     C555302   7.668  12.790   5.911 -0.3972  0.0484 -1.8418
 5028UDC     C655303   7.773  12.885   5.855 -0.7121  0.4286 -0.8627
 5028UDC     C755304   7.810  13.000   5.947 -0.3319  0.5050 -1.2962
 5028UDC     C855305   7.870  12.974   6.092  1.2568 -0.4818 -0.4656
 5028UDC     C955306   8.013  12.926   6.080 -0.2977 -0.3406 -1.1151
 5028UDC    C1055307   8.060  12.838   6.197 -0.2575  0.0826 -0.4963
 5028UDC    C1155308   7.971  12.714   6.202 -0.6427  1.4436 -0.4681
 5029UDC     C155309   0.668   7.214   9.241  0.2017  0.4501  0.2545
 5029UDC     C255310   0.630   7.365   9.209 -0.6941 -0.0267 -0.6107
 5029UDC     C355311   0.617   7.481   9.315  1.1666 -0.2220  0.0203
 5029UDC     C455312   0.752   7.518   9.371 -0.4994  0.1286 -0.4517
 5029UDC     C555313   0.730   7.625   9.472 -1.0015  0.2576  0.4962
 5029UDC     C655314   0.819   7.618   9.604 -0.2830 -0.8760  0.7436
 5029UDC     C755315   0.799   7.738   9.693  0.7783 -0.2199 -0.3955
 5029UDC     C855316   0.861   7.879   9.691  0.9812 -0.2102  0.4775
 5029UDC     C955317   0.863   7.951   9.825 -1.0370 -0.7201  0.4899
 5029UDC    C1055318   0.726   7.968   9.877  0.1773 -0.0682 -0.1397
 5029UDC    C1155319   0.707   8.059  10.004 -0.7192  0.0876 -0.3062
 5030UDC     C155320   8.740   4.692   5.704  0.0269 -0.7456 -0.0113
 5030UDC     C255321   8.756   4.582   5.812 -0.2974 -0.4255  0.6100
 5030UDC     C355322   8.616   4.534   5.870 -0.7421 -0.2777 -0.2989
 5030UDC     C455323   8.629   4.443   5.995 -0.7312 -0.1143  1.0211
 5030UDC     C555324   8.693   4.532   6.099 -0.3742 -0.0070  0.4159
 5030UDC     C655325   8.698   4.461   6.240 -0.1154  0.0015  0.1469
 5030UDC     C755326   8.780   4.516   6.362 -0.1849  0.1312  0.7636
 5030UDC     C855327   8.727   4.478   6.503 -0.2868 -0.5859 -0.7271
 5030UDC     C955328   8.816   4.535   6.612 -0.1457 -1.2359 -0.2870
 5030UDC    C1055329   8.911   4.423   6.662 -0.5601 -0.0407  0.3543
 5030UDC    C1155330   8.969   4.475   6.788  0.2200 -0.5323  0.2820
 5031UDC     C155331   2.257   4.153  19.120  0.5440  0.9260  0.5214
 5031UDC     C255332   2.223   4.178  19.268 -0.6941 -1.1071  0.1200
 5031UDC     C355333   2.187   4.068  19.373 -0.1103 -0.2798  1.0861
 5031UDC     C455334   2.206   3.928  19.312 -0.6832  0.1770 -0.0470
 5031UDC     C555335   2.128   3.821  19.398 -0.0954 -0.6747 -1.5966
 5031UDC     C655336   1.977   3.835  19.421 -0.0601  0.2479  0.1381
 5031UDC     C755337   1.934   3.752  19.539  0.2405 -0.2266  0.1126
 5031UDC     C855338   1.782   3.752  19.575  0.0421 -0.4289  0.0087
 5031UDC     C955339   1.745   3.806  19.722  0.0806  0.5948 -0.1962
 5031UDC    C1055340   1.810   3.725  19.837  0.2451 -0.4010 -0.4542
 5031UDC    C1155341   1.772   3.783  19.977  0.0661 -0.1253  1.3477
 5032UDC     C155342  11.848  15.937   1.345 -0.0785  0.4278  0.1912
 5032UDC     C255343  11.949  16.054   1.375  0.4286  0.2542 -0.4239
 5032UDC     C355344  11.924  16.147   1.495 -0.8258 -0.9363 -1.0453
 5032UDC     C455345  12.001  16.286   1.487 -0.6131  0.4840 -0.8059
 5032UDC     C555346  11.946  16.406   1.567 -1.3351  0.3805 -0.9999
 5032UDC     C655347  11.825  16.476   1.489 -0.4958  0.6393 -0.1403
 5032UDC     C755348  11.685  16.399   1.506 -0.4041 -0.3992 -0.3586
 5032UDC     C855349  11.590  16.460   1.610  0.1376  1.2893  0.3502
 5032UDC     C955350  11.537  16.603   1.574  0.0586 -1.1609  0.5924
 5032UDC    C1055351  11.629  16.724   1.553 -1.1187 -0.4753 -0.0393
 5032UDC    C1155352  11.666  16.796   1.683 -0.0255 -0.2896 -0.2908
 5033UDC     C155353   4.045  15.152   8.076  0.1227 -0.6917 -0.1771
 5033UDC     C255354   4.176  15.156   7.996 -0.1595  0.4093  0.5877
 5033UDC     C355355   4.178  15.015   7.930 -0.6340  0.1286 -0.3967
 5033UDC     C455356   4.103  15.019   7.796  1.2775 -1.3317  0.5028
 5033UDC     C555357   4.121  14.896   7.697 -0.1327 -0.0228  1.8207
 5033UDC     C655358   4.045  14.767   7.719  0.9424  0.1927  0.3663
 5033UDC     C755359   3.899  14.743   7.663 -0.5095  0.7444 -0.6442
 5033UDC     C855360   3.858  14.590   7.640 -0.1042 -0.7310 -0.9428
 5033UDC     C955361   3.861  14.504   7.769  0.5483 -0.0424  0.3212
 5033UDC    C1055362   3.738  14.417   7.798  0.7872 -0.6920  0.6943
 5033UDC    C1155363   3.767  14.283   7.866  0.8317  0.1302 -0.0491
 5034UDC     C155364   8.774  12.572   8.342  0.2499  0.1919 -0.5372
 5034UDC     C255365   8.706  12.473   8.246 -0.6534  1.1605 -0.3156
 5034UDC     C355366   8.624  12.537   8.134  0.5582  0.0961  0.0380
 5034UDC     C455367   8.555  12.437   8.049  0.8536  0.0548  0.4207
 5034UDC     C555368   8.651  12.325   7.992 -0.2765 -0.0947 -0.5891
 5034UDC     C655369   8.768  12.332   7.888 -0.1431  0.3880  0.8917
 5034UDC     C755370   8.773  12.433   7.769 -0.1502 -0.3692  0.1002
 5034UDC     C855371   8.711  12.417   7.627  0.5768  0.0701 -1.1832
 5034UDC     C955372   8.825  12.396   7.524 -0.4114  0.3715  0.8533
 5034UDC    C1055373   8.777  12.322   7.401 -1.6968  0.7702  0.1702
 5034UDC    C1155374   8.685  12.203   7.430 -0.0001 -0.3152 -0.8917
 5035UDC     C155375  15.415   3.058   4.004  0.7526  0.7438 -0.7459
 5035UDC     C255376  15.513   3.089   3.899 -0.1562  0.3667 -0.4037
 5035UDC     C355377  15.601   2.957   3.871 -0.6376 -0.4557  0.4460
 5035UDC     C455378  15.700   2.929   3.988  0.1587  0.1966 -0.0516
 5035UDC     C555379  15.651   2.823   4.091 -0.4661  0.9225  0.2428
 5035UDC     C655380  15.762   2.789   4.194  0.5288 -0.2784 -0.2769
 5035UDC     C755381  15.732   2.684   4.305 -0.2064 -0.0430  0.1458
 5035UDC     C855382  15.870   2.673   4.372 -1.0014  0.0243 -0.1676
 5035UDC     C955383  15.850   2.578   4.486 -0.8166  0.0844  0.7168
 5035UDC    C1055384  15.962   2.596   4.582  0.0287 -0.3982  0.1181
 5035UDC    C1155385  15.985   2.502   4.693  0.0766  0.6628  0.6638
 5036UDC     C155386   6.992  17.817  13.372  0.9534 -0.2090 -0.7903
 5036UDC     C255387   7.000  17.661  13.354  0.4375 -0.1663 -1.4231
 5036UDC     C355388   6.858  17.604  13.375 -0.0743 -0.6311 -0.9353
 5036UDC     C455389   6.803  17.521  13.253  1.7280  0.1374 -1.0249
 5036UDC     C555390   6.662  17.452  13.282 -0.0683  0.3680  0.3394
 5036UDC     C655391   6.665  17.297  13.294  1.1016 -0.1064 -0.5537
 5036UDC     C755392   6.702  17.242  13.153  0.1434  0.1421  0.3889
 5036UDC     C855393   6.760  17.106  13.154 -0.2759  0.3619  0.1263
 5036UDC     C955394   6.894  17.097  13.218 -0.0455 -0.2097 -0.4332
 5036UDC    C1055395   6.935  16.956  13.257  0.4752 -0.9484  0.4854
 5036UDC    C1155396   6.931  16.851  13.146  0.6064 -0.0875 -0.8775
 5037UDC     C155397  17.495  12.194   0.357  1.1998 -0.1051  0.3291
 5037UDC     C255398  17.588  12.287   0.270 -0.5064  0.9999 -0.5982
 5037UDC     C355399  17.548  12.329   0.127  0.3729  0.5821  0.1292
 5037UDC     C455400  17.404  12.386   0.102  0.1955  1.5031  0.0803
 5037UDC     C555401  17.384  12.416  -0.048  0.7064  0.9329  0.1768
 5037UDC     C655402  17.245  12.463  -0.083 -0.1935  0.2344  0.9935
 5037UDC     C755403  17.230  12.530  -0.225 -1.2423  0.8596  0.2944
 5037UDC     C855404  17.082  12.578  -0.241  0.0484 -0.6124 -0.4088
 5037UDC     C955405  16.978  12.461  -0.215  0.6943  0.1532  0.7181
 5037UDC    C1055406  16.825  12.478  -0.239 -0.2948 -1.1623 -0.7524
 5037UDC    C1155407  16.787  12.331  -0.268  0.4329  0.6153  0.2745
 5038UDC     C155408  12.359   6.686   5.027 -0.1153 -0.2269  0.1885
 5038UDC     C255409  12.366   6.536   5.038 -0.8871  0.3494 -0.4087
 5038UDC     C355410  12.495   6.480   4.965 -0.8519 -0.6665  0.3154
 5038UDC     C455411  12.504   6.328   4.953  0.2156  0.5045 -0.9739
 5038UDC     C555412  12.640   6.263   4.927 -0.6952 -0.1369  1.5642
 5038UDC     C655413  12.618   6.109   4.949 -0.3885 -0.1764 -0.2528
 5038UDC     C755414  12.510   6.043   4.864  0.5777 -0.9749  0.0487
 5038UDC     C855415  12.515   5.887   4.869  1.1159 -0.5855 -0.8694
 5038UDC     C955416  12.530   5.818   5.009  0.6881 -0.4375  0.1934
 5038UDC    C1055417  12.541   5.667   4.999  0.5981  0.5021  0.1535
 5038UDC    C1155418  12.665   5.624   4.911  0.0714 -0.4222  0.1860
 5039UDC     C155419   4.538  10.250  16.425 -0.7448  1.0561 -0.2632
 5039UDC     C255420   4.386  10.225  16.401  0.9189 -1.1626  0.9452
 5039UDC     C355421   4.408  10.137  16.279  0.0293 -0.0758 -1.3686
 5039UDC     C455422   4.284  10.068  16.216 -0.0092 -0.3036  0.5276
 5039UDC     C555423   4.219   9.956  16.296  0.6958 -1.1070 -0.5907
 5039UDC     C655424   4.064   9.977  16.286 -0.6218 -0.1358  0.3552
 5039UDC     C755425   3.971   9.859  16.265 -1.1120  0.7744  0.4373
 5039UDC     C855426   3.821   9.890  16.264 -1.6908  0.5437  0.6230
 5039UDC     C955427   3.771   9.933  16.407  0.3342  0.9029 -0.3008
 5039UDC    C1055428   3.637  10.000  16.412  0.3756 -0.4354 -0.4261
 5039UDC    C1155429   3.618  10.149  16.374 -0.0625  0.6490 -0.5344
 5040UDC     C155430  16.277   9.633   0.141  0.7725  0.2464  0.6232
 5040UDC     C255431  16.146   9.550   0.119 -1.6358  0.2732  1.8738
 5040UDC     C355432  16.058   9.579   0.247  0.1494 -0.4995  0.5807
 5040UDC     C455433  15.938   9.493   0.230  0.3837  0.2140  0.7132
 5040UDC     C555434  15.910   9.464   0.084 -0.0181 -0.1349  0.7105
 5040UDC     C655435  15.783   9.377   0.052  1.4463 -0.1219 -0.1878
 5040UDC     C755436  15.694   9.449  -0.059  1.1152 -0.5692 -0.1309
 5040UDC     C855437  15.594   9.367  -0.146 -0.6536  0.1457  0.4537
 5040UDC     C955438  15.479   9.456  -0.181  1.7357  0.6037 -0.8185
 5040UDC    C1055439  15.407   9.380  -0.299  0.5580 -0.0122  0.0681
 5040UDC    C1155440  15.314   9.473  -0.375 -0.2832 -0.2100  0.2473
 5041UDC     C155441  15.693   5.930   4.553  0.4801  0.5840  0.1859
 5041UDC     C255442  15.822   5.926   4.473  0.2745 -0.8343 -0.2829
 5041UDC     C355443  15.821   5.998   4.340  0.9837  0.2412 -0.0990
 5041UDC     C455444  15.838   5.915   4.218 -0.6775  0.0336 -0.8447
 5041UDC     C555445  15.819   5.997   4.099 -1.4489 -0.2917 -0.2382
 5041UDC     C655446  15.851   5.935   3.962  0.1252  0.8475  0.4021
 5041UDC     C755447  15.764   5.825   3.889 -0.0460 -0.6566 -1.3544
 5041UDC     C855448  15.646   5.893   3.803 -0.6851 -0.2256 -0.1004
 5041UDC     C955449  15.587   5.805   3.699  0.7530 -0.1667  0.2807
 5041UDC    C1055450  15.597   5.865   3.557  0.0639  1.2497 -0.1779
 5041UDC    C1155451  15.742   5.890   3.517  0.5920  0.7034 -0.0396
 5042UDC     C155452   0.129   3.938  13.367  0.4837 -0.0241  0.4190
 5042UDC     C255453   0.147   3.971  13.219 -0.0514 -0.2633  0.5647
 5042UDC     C355454   0.176   4.124  13.201 -0.2065  0.1059  0.4089
 5042UDC     C455455   0.287   4.142  13.089  1.1199  0.0007 -0.5779
 5042UDC     C555456   0.427   4.120  13.143 -0.7047  0.6592  0.0464
 5042UDC     C655457   0.517   4.076  13.027 -0.5297 -0.1852 -0.0884
 5042UDC     C755458   0.665   4.028  13.063  0.1747 -0.6198 -0.0645
 5042UDC     C855459   0.750   4.008  12.938  0.6336 -0.0538 -0.1705
 5042UDC     C955460   0.871   3.935  12.987 -0.4088 -0.2748 -0.0911
 5042UDC    C1055461   0.954   3.994  13.111 -0.0550 -0.0411  0.4223
 5042UDC    C1155462   1.054   3.894  13.176  0.0789 -0.1997  0.7023
 5043UDC     C155463   6.299  16.813   1.904 -0.4197  0.4075 -0.0884
 5043UDC     C255464   6.175  16.882   1.853 -0.3964  0.1958 -0.1244
 5043UDC     C355465   6.108  16.784   1.759  1.4012  0.0179 -0.1934
 5043UDC     C455466   6.021  16.851   1.652 -0.5137  0.2738  0.2509
 5043UDC     C555467   5.980  16.739   1.556  0.2455 -1.8160  0.0704
 5043UDC     C655468   5.905  16.794   1.427 -0.2952  0.1069  0.9633
 5043UDC     C755469   5.858  16.715   1.304 -0.0653 -0.0846 -0.6053
 5043UDC     C855470   5.724  16.777   1.255 -0.0867  0.5709 -0.4131
 5043UDC     C955471   5.659  16.724   1.120 -0.5196  0.2690 -1.3108
 5043UDC    C1055472   5.511  16.757   1.138  0.6056  0.0173 -0.5275
 5043UDC    C1155473   5.445  16.716   1.274  0.8613 -0.0965 -0.7689
 5044UDC     C155474  16.246   5.523  11.502 -1.0500 -0.7942  0.3508
 5044UDC     C255475  16.252   5.402  11.400  0.5342  0.5451 -0.3682
 5044UDC     C355476  16.167   5.422  11.274  0.0310 -0.0734 -0.2682
 5044UDC     C455477  16.164   5.292  11.191  0.3730 -0.0265 -0.6771
 5044UDC     C555478  16.061   5.186  11.229 -0.0066 -0.2330 -0.9603
 5044UDC     C655479  16.061   5.064  11.138  0.2529 -0.5849 -0.1451
 5044UDC     C755480  15.926   4.989  11.161  1.1109  0.1062  0.2716
 5044UDC     C855481  15.905   4.835  11.134  0.8119  0.0293 -0.8133
 5044UDC     C955482  15.763   4.773  11.160 -1.0725  1.4904 -0.2010
 5044UDC    C1055483  15.677   4.831  11.273  0.0217 -0.1652  0.2499
 5044UDC    C1155484  15.628   4.709  11.362 -0.9355 -0.6433  0.5381
 5045UDC     C155485   2.994   7.683  12.248 -0.4556  0.7167  0.3117
 5045UDC     C255486   2.909   7.552  12.233  0.7432 -0.0103  0.1750
 5045UDC     C355487   2.899   7.523  12.075 -0.3127 -0.0399  0.2386
 5045UDC     C455488   3.040   7.532  12.016  0.2946  0.1867 -0.4308
 5045UDC     C555489   3.046   7.547  11.865 -1.7522 -0.8543  0.5021
 5045UDC     C655490   2.944   7.493  11.772 -0.4220 -0.1933 -0.8235
 5045UDC     C755491   2.953   7.602  11.662 -1.1946  0.2905 -1.2239
 5045UDC     C855492   2.838   7.586  11.561  1.2845  1.4910 -0.5957
 5045UDC     C955493   2.862   7.660  11.428 -0.7135  0.1410 -0.1094
 5045UDC    C1055494   2.901   7.803  11.452  1.0425  0.1776 -0.9818
 5045UDC    C1155495   2.909   7.889  11.325  0.1879  1.0475 -0.1009
 5046UDC     C155496   8.719   4.698  10.683 -0.1938 -0.0760 -0.2409
 5046UDC     C255497   8.850   4.614  10.692  0.4858  0.0690  0.0771
 5046UDC     C355498   8.826   4.458  10.713  0.6555  0.3641 -1.0172
 5046UDC     C455499   8.947   4.366  10.741 -0.2249  0.0674 -0.9162
 5046UDC     C555500   9.011   4.296  10.627 -0.2252  0.2856 -0.0805
 5046UDC     C655501   9.162   4.271  10.647 -0.0336  0.6534  0.1018
 5046UDC     C755502   9.212   4.152  10.563 -0.3041  0.2204  0.9148
 5046UDC     C855503   9.161   4.015  10.608  0.7428  1.3789  0.8475
 5046UDC     C955504   9.220   3.883  10.543 -0.2997 -0.4037 -0.5036
 5046UDC    C1055505   9.126   3.767  10.516  0.3544 -0.6752  0.2964
 5046UDC    C1155506   9.195   3.656  10.437 -0.3520  0.3573  0.3921
 5047UDC     C155507  12.500  16.609   8.533 -1.1987 -0.0715 -0.5885
 5047UDC     C255508  12.389  16.505   8.508 -0.2412  0.4620 -0.1154
 5047UDC     C355509  12.265  16.578   8.450 -1.0848 -1.0397 -0.5466
 5047UDC     C455510  12.136  16.514   8.503  0.2053  0.9330  0.3573
 5047UDC     C555511  11.998  16.558   8.457 -0.0477 -1.1392 -1.1851
 5047UDC     C655512  11.876  16.564   8.554 -0.1454  0.2505 -0.1503
 5047UDC     C755513  11.861  16.653   8.676  0.0553  0.3916 -0.5185
 5047UDC     C855514  11.954  16.650   8.805  0.4055 -0.0058  0.4400
 5047UDC     C955515  11.870  16.667   8.933 -0.8401 -1.2485  0.2474
 5047UDC    C1055516  11.759  16.570   8.966  0.6200 -0.6818  0.1939
 5047UDC    C1155517  11.801  16.524   9.114  0.4015  0.5872 -0.1954
 5048UDC     C155518   8.732  14.855   7.035 -0.7538  0.9232 -0.3479
 5048UDC     C255519   8.618  14.770   6.978  0.4227  0.0971 -0.4432
 5048UDC     C355520   8.678  14.641   6.926 -0.3220  0.6327  0.3041
 5048UDC     C455521   8.567  14.547   6.864 -0.4509 -0.0513 -0.1283
 5048UDC     C555522   8.505  14.614   6.740  0.2581 -0.0240  0.1786
 5048UDC     C655523   8.355  14.567   6.713 -0.3143 -1.5097 -0.4130
 5048UDC     C755524   8.253  14.620   6.814  0.2447  0.0024 -0.2454
 5048UDC     C855525   8.114  14.555   6.779  0.0545 -0.4433 -0.2976
 5048UDC     C955526   8.120  14.401   6.826 -0.7282  0.8587  1.4437
 5048UDC    C1055527   8.054  14.317   6.721 -0.5597  1.2644  0.9670
 5048UDC    C1155528   7.906  14.302   6.734  0.5788  0.6370  0.8206
 5049UDC     C155529   8.223  12.930  15.309 -0.1137  0.5470  1.4154
 5049UDC     C255530   8.343  12.834  15.316 -0.1633  0.2679  0.4250
 5049UDC     C355531   8.338  12.752  15.444 -0.2954 -0.1344 -1.4031
 5049UDC     C455532   8.423  12.796  15.565  0.6906  0.0002 -0.2135
 5049UDC     C555533   8.416  12.702  15.685  0.4891  0.3992 -0.1049
 5049UDC     C655534   8.498  12.752  15.809  0.3542  0.1564  1.3152
 5049UDC     C755535   8.507  12.681  15.941 -0.2813 -0.3559  0.3869
 5049UDC     C855536   8.374  12.653  16.019 -0.5101  0.9133  0.0344
 5049UDC     C955537   8.400  12.589  16.159 -0.2413 -0.1228  0.7340
 5049UDC    C1055538   8.278  12.501  16.186 -0.1428 -0.8160 -0.1896
 5049UDC    C1155539   8.155  12.591  16.154 -0.6996  1.0689 -0.0506
 5050UDC     C155540  18.065  15.068  11.556  0.2987 -1.0927 -0.0707
 5050UDC     C255541  18.102  15.212  11.515 -0.7752  0.0673 -0.6214
 5050UDC     C355542  17.994  15.275  11.423  0.7704  0.2203  0.4076
 5050UDC     C455543  17.955  15.191  11.302 -0.3483 -0.5131  0.4328
 5050UDC     C555544  18.070  15.154  11.204 -0.0001 -0.1689 -0.2766
 5050UDC     C655545  18.009  15.169  11.063 -0.4919  0.3358  0.0675
 5050UDC     C755546  18.092  15.164  10.932  0.9612 -0.7030  0.1242
 5050UDC     C855547  18.090  15.301  10.869  0.0214  0.4832  1.1439
 5050UDC     C955548  18.168  15.324  10.736  0.3635  0.5524 -1.1283
 5050UDC    C1055549  18.256  15.443  10.776 -0.4902  0.2791  0.2200
 5050UDC    C1155550  18.374  15.405  10.870 -0.6498  0.2941  0.7278
 5051UDC     C155551  12.497   1.325   6.280 -0.1767 -0.8438 -0.0879
 5051UDC     C255552  12.619   1.410   6.274 -0.8590 -0.6279  1.2711
 5051UDC     C355553  12.599   1.551   6.330  0.2812  0.3394 -0.4698
 5051UDC     C455554  12.459   1.599   6.301 -0.5487  0.7491  1.5093
 5051UDC     C555555  12.443   1.735   6.366 -0.1100 -0.2621  0.2050
 5051UDC     C655556  12.322   1.809   6.297 -0.3698  0.3154  0.2309
 5051UDC     C755557  12.195   1.714   6.294 -0.2231 -0.5217 -0.1738
 5051UDC     C855558  12.158   1.650   6.428  0.2231 -0.4031 -0.3798
 5051UDC     C955559  12.086   1.768   6.503 -0.0469 -0.0788 -0.1072
 5051UDC    C1055560  12.082   1.766   6.656  0.1073  0.0676  0.1607
 5051UDC    C1155561  12.220   1.798   6.725 -0.2537 -1.0804 -1.3009
 5052UDC     C155562  16.999   8.883  19.594 -0.0126  1.1561  0.1832
 5052UDC     C255563  16.947   8.796  19.485 -0.2109 -0.4618  1.1688
 5052UDC     C355564  17.030   8.799  19.352 -0.1560 -0.4197 -0.4635
 5052UDC     C455565  17.150   8.703  19.341 -0.5033  0.1369 -0.0236
 5052UDC     C555566  17.260   8.736  19.442 -0.3042 -1.4360  0.1511
 5052UDC     C655567  17.401   8.669  19.409  0.9487 -0.8819 -0.3791
 5052UDC     C755568  17.515   8.752  19.481  0.4557  0.3876  0.3275
 5052UDC     C855569  17.482   8.902  19.458 -0.0333 -0.0521  0.3642
 5052UDC     C955570  17.605   8.978  19.509  0.7251  0.1163  0.5116
 5052UDC    C1055571  17.571   9.120  19.567 -0.6482  0.5163 -0.3718
 5052UDC    C1155572  17.541   9.216  19.456  0.1808 -0.9528  0.3581
 5053UDC     C155573   2.804  18.737  16.029  0.7261  0.3356  0.7243
 5053UDC     C255574   2.677  18.756  16.114 -0.1663 -0.8724 -0.1242
 5053UDC     C355575   2.591  18.873  16.064 -0.1154 -0.8913 -0.7911
 5053UDC     C455576   2.481  18.837  15.965 -0.6840  0.2181  0.6692
 5053UDC     C555577   2.404  18.967  15.914 -0.7485  0.1976 -0.5999
 5053UDC     C655578   2.331  19.057  16.020 -0.0705 -0.2961  0.3042
 5053UDC     C755579   2.200  19.011  16.083 -0.7348 -0.0206  0.8918
 5053UDC     C855580   2.077  19.003  15.991  0.5701  0.5837 -0.0765
 5053UDC     C955581   2.036  19.149  15.953 -0.6217 -0.6603  0.3188
 5053UDC    C1055582   1.906  19.138  15.867  0.9222 -0.1562 -0.0465
 5053UDC    C1155583   1.903  18.999  15.799 -0.8471  0.4276 -0.0884
 5054UDC     C155584   2.017  18.040  14.730  0.2771 -0.4661  0.0260
 5054UDC     C255585   2.160  18.092  14.771  0.0056 -0.1348  0.8239
 5054UDC     C355586   2.217  18.162  14.650 -1.2834 -0.6987 -0.6440
 5054UDC     C455587   2.209  18.096  14.510  0.3311 -0.1066  0.0563
 5054UDC     C555588   2.301  18.169  14.414  0.6249 -0.3298  0.2773
 5054UDC     C655589   2.343  18.082  14.298  1.3724 -0.4724 -0.2085
 5054UDC     C755590   2.448  18.137  14.208  0.5372 -0.8553  0.5418
 5054UDC     C855591   2.524  18.038  14.123 -0.1607 -0.4725  0.2942
 5054UDC     C955592   2.610  18.109  14.014  0.1063  0.2131 -0.1182
 5054UDC    C1055593   2.665  18.014  13.911  0.1620 -0.8598 -0.2989
 5054UDC    C1155594   2.703  18.085  13.778 -0.7094 -0.7757 -0.4097
 5055UDC     C155595  14.641   0.239   1.095 -0.3579  1.2787 -0.4472
 5055UDC     C255596  14.734   0.302   1.193 -0.1956 -0.4794 -0.7263
 5055UDC     C355597  14.688   0.374   1.329  0.0353 -0.0669 -0.0294
 5055UDC     C455598  14.799   0.397   1.431 -0.5017 -0.2017 -0.5713
 5055UDC     C555599  14.908   0.505   1.387  0.4819 -0.7729  0.0399
 5055UDC     C655600  14.975   0.572   1.505  0.8522  0.7358  0.1595
 5055UDC     C755601  15.060   0.688   1.462  0.4905  0.5002 -0.8399
 5055UDC     C855602  15.170   0.657   1.362 -0.6556  0.7932 -0.1840
 5055UDC     C955603  15.244   0.528   1.385  0.9821 -0.7185 -0.1269
 5055UDC    C1055604  15.376   0.520   1.312 -0.0993  1.4539 -0.6945
 5055UDC    C1155605  15.518   0.553   1.378 -0.1704  0.1561  0.0771
 5056UDC     C155606   8.205   4.950   6.740 -0.0835 -1.0892  0.6710
 5056UDC     C255607   8.202   4.978   6.890 -0.1554 -0.4394 -0.3795
 5056UDC     C355608   8.325   4.928   6.957 -0.7115 -1.6252 -0.8419
 5056UDC     C455609   8.279   4.782   6.995 -0.4739 -0.4410  0.4958
 5056UDC     C555610   8.145   4.728   7.032 -0.7250  0.2549  0.0819
 5056UDC     C655611   8.135   4.587   7.088  0.0647  1.2312 -0.6075
 5056UDC     C755612   8.057   4.570   7.220  0.7484  0.5680  1.2286
 5056UDC     C855613   8.095   4.475   7.328 -0.8304  0.5904 -0.9416
 5056UDC     C955614   7.999   4.350   7.329 -0.5650  0.7236  0.4986
 5056UDC    C1055615   7.996   4.294   7.468 -0.0673 -0.4538  0.6175
 5056UDC    C1155616   7.906   4.166   7.479  0.0650  0.2598  0.7616
 5057UDC     C155617   2.602  14.204  14.528 -0.2124  0.0558 -0.1012
 5057UDC     C255618   2.753  14.204  14.491 -0.8130 -0.0647 -0.3340
 5057UDC     C355619   2.838  14.336  14.469 -0.2044 -0.0868  0.0951
 5057UDC     C455620   2.989  14.330  14.474  0.1294  0.0863  0.1487
 5057UDC     C555621   3.029  14.204  14.392 -0.1956 -0.2470 -0.2549
 5057UDC     C655622   3.140  14.146  14.480 -0.6472  0.9548 -1.1910
 5057UDC     C755623   3.232  14.062  14.395 -0.6687  0.6310 -0.8239
 5057UDC     C855624   3.359  14.012  14.471 -0.4535  0.0061  0.1697
 5057UDC     C955625   3.422  13.883  14.418  0.5904 -1.0312  0.1416
 5057UDC    C1055626   3.546  13.829  14.485  1.5051 -0.7964 -1.2263
 5057UDC    C1155627   3.631  13.734  14.392 -0.0008  0.4939  0.0029
 5058UDC     C155628   2.555  10.696   7.969  0.6144 -0.3022 -0.7376
 5058UDC     C255629   2.560  10.814   7.866 -0.4980  0.2220 -0.6055
 5058UDC     C355630   2.638  10.783   7.732  0.8889 -0.3551 -1.5485
 5058UDC     C455631   2.785  10.747   7.741  0.6512 -0.8007  0.0320
 5058UDC     C555632   2.859  10.798   7.612 -0.4314  0.5665 -1.1948
 5058UDC     C655633   2.769  10.798   7.491  0.4348  0.1914  0.2428
 5058UDC     C755634   2.824  10.894   7.378  0.1852 -0.1431 -0.3446
 5058UDC     C855635   2.845  11.037   7.404 -0.5086 -1.0121 -0.6927
 5058UDC     C955636   2.746  11.102   7.497  0.4868  0.1340  0.3477
 5058UDC    C1055637   2.763  11.256   7.524 -0.2592 -0.1325  0.3781
 5058UDC    C1155638   2.673  11.314   7.633  0.7509  0.7017 -0.6949
 5059UDC     C155639   8.196   0.245  14.751  0.4621  1.0902 -0.6511
 5059UDC     C255640   8.201   0.173  14.885  0.6011  0.3773 -0.5152
 5059UDC     C355641   8.248   0.026  14.891  0.2266 -0.5269  0.7875
 5059UDC     C455642   8.288  -0.024  15.032  0.3760  0.1621  0.2447
 5059UDC     C555643   8.372  -0.154  15.038 -0.2170 -0.4764  0.5055
 5059UDC     C655644   8.445  -0.160  15.176  0.6322  0.2698 -0.5286
 5059UDC     C755645   8.584  -0.218  15.184 -0.3660  0.0980 -0.6424
 5059UDC     C855646   8.635  -0.239  15.323 -0.5906 -0.3344 -0.3849
 5059UDC     C955647   8.779  -0.298  15.314 -0.3889 -1.1968 -0.0539
 5059UDC    C1055648   8.891  -0.206  15.258 -0.2842 -0.2450 -0.2939
 5059UDC    C1155649   9.028  -0.277  15.241  0.5050  0.4915 -0.2284
 5060UDC     C155650  11.503  14.689  14.946  0.2657  0.6635  0.5193
 5060UDC     C255651  11.631  14.772  14.907  0.4220 -0.8605  0.5545
 5060UDC     C355652  11.749  14.768  15.011  0.3184 -0.5371  0.4409
 5060UDC     C455653  11.881  14.847  14.969  0.1580  0.3829 -0.4788
 5060UDC     C555654  12.010  14.836  15.055  0.6497 -1.0197 -0.1634
 5060UDC     C655655  12.109  14.744  14.990  0.0356  0.4908 -0.7017
 5060UDC     C755656  12.242  14.763  15.063 -0.3770  0.9362  0.4700
 5060UDC     C855657  12.289  14.905  15.037  0.6304 -0.4287 -0.8523
 5060UDC     C955658  12.358  14.938  14.904 -1.0799 -0.4397 -0.0669
 5060UDC    C1055659  12.360  15.085  14.861  0.7444 -0.1059 -0.3947
 5060UDC    C1155660  12.432  15.100  14.730 -0.5996  0.7500  0.3992
 5061UDC     C155661  15.275  15.690   6.685 -0.9775 -0.4655  0.4319
 5061UDC     C255662  15.336  15.625   6.808  1.1183  0.2827  0.0326
 5061UDC     C355663  15.335  15.467   6.792  0.4007  0.4437  0.8411
 5061UDC     C455664  15.218  15.393   6.871 -0.3345  0.1812 -1.1423
 5061UDC     C555665  15.255  15.254   6.905 -0.7371  0.6791  0.7542
 5061UDC     C655666  15.129  15.158   6.920  0.1739  0.3820  0.5149
 5061UDC     C755667  15.173  15.005   6.928 -0.3318 -1.0793  0.6554
 5061UDC     C855668  15.256  14.938   6.816  0.4362  0.2952 -0.1461
 5061UDC     C955669  15.310  14.797   6.840 -0.4902  0.8873  0.6097
 5061UDC    C1055670  15.213  14.699   6.902 -0.6250  0.1670  0.4576
 5061UDC    C1155671  15.270  14.563   6.938 -0.2521  0.4892 -1.0569
 5062UDC     C155672   8.722   5.678   4.841 -0.8479 -0.1766 -0.9272
 5062UDC     C255673   8.792   5.746   4.721  0.1484  0.1734  0.0991
 5062UDC     C355674   8.735   5.745   4.585  0.7720  0.7499  0.5940
 5062UDC     C455675   8.585   5.783   4.568  0.2381 -0.4660  0.1357
 5062UDC     C555676   8.542   5.814   4.428 -1.1714 -0.2858 -0.1289
 5062UDC     C655677   8.482   5.962   4.446 -0.2276 -0.2040 -0.1621
 5062UDC     C755678   8.476   6.053   4.327 -0.4947 -0.6519  0.2617
 5062UDC     C855679   8.394   6.167   4.379 -0.9715 -0.8401  0.1518
 5062UDC     C955680   8.362   6.274   4.272 -0.3820 -0.7922 -0.3505
 5062UDC    C1055681   8.224   6.251   4.212  0.2515  0.2241  0.1909
 5062UDC    C1155682   8.206   6.297   4.062  0.3897 -0.0095 -0.6990
 5063UDC     C155683   9.906  11.177  15.161 -0.5124  0.0182 -0.3068
 5063UDC     C255684   9.966  11.052  15.112 -0.5101 -0.4860 -1.0257
 5063UDC     C355685  10.085  10.995  15.192  0.9099 -0.8763  0.3780
 5063UDC     C455686  10.133  10.856  15.146 -0.2825 -0.0759 -1.0420
 5063UDC     C555687  10.251  10.799  15.233  0.4796  0.0323  1.5801
 5063UDC     C655688  10.315  10.665  15.187 -1.0197  0.2767 -0.1903
 5063UDC     C755689  10.446  10.627  15.252 -0.5623 -0.4918  0.1300
 5063UDC     C855690  10.467  10.616  15.407  1.6866 -0.1180  0.5650
 5063UDC     C955691  10.470  10.469  15.437  0.3976 -0.4135  1.0035
 5063UDC    C1055692  10.337  10.400  15.402  0.1456  0.0430  0.1123
 5063UDC    C1155693  10.350  10.242  15.402  0.4547  0.0148  0.7580
 5064UDC     C155694   6.864  12.298  10.924 -0.0094  0.4172 -0.8493
 5064UDC     C255695   6.941  12.203  10.825 -0.4430  0.0162  1.3615
 5064UDC     C355696   6.849  12.091  10.754 -0.0059  0.5383  0.9390
 5064UDC     C455697   6.761  12.166  10.654 -0.2398  0.0904 -0.2524
 5064UDC     C555698   6.778  12.177  10.506  1.0570 -0.8419  0.0231
 5064UDC     C655699   6.761  12.320  10.462  0.9759 -1.1323 -0.6027
 5064UDC     C755700   6.803  12.372  10.323 -0.3856  0.2096 -0.1624
 5064UDC     C855701   6.965  12.366  10.322  0.2827 -0.0237 -0.9464
 5064UDC     C955702   7.024  12.468  10.216  0.8352 -1.0750 -0.6830
 5064UDC    C1055703   7.150  12.548  10.263  0.4412 -0.0203  0.4759
 5064UDC    C1155704   7.259  12.576  10.164 -0.0088  0.4302  0.5040
 5065UDC     C155705  12.880  18.723  12.439 -0.8567  0.1456 -0.3857
 5065UDC     C255706  12.922  18.625  12.336  0.5007 -0.3887 -0.1650
 5065UDC     C355707  13.059  18.650  12.269  0.0458 -0.0479 -0.4103
 5065UDC     C455708  13.170  18.634  12.382 -0.7474  0.8252 -0.2019
 5065UDC     C555709  13.181  18.503  12.461 -0.0086 -0.0920 -1.1971
 5065UDC     C655710  13.171  18.375  12.379 -0.8519 -0.3300  0.3586
 5065UDC     C755711  13.229  18.245  12.447  0.4568 -0.2044  0.0017
 5065UDC     C855712  13.373  18.248  12.498 -1.6159 -0.7840 -0.8236
 5065UDC     C955713  13.427  18.110  12.528 -0.3282 -0.6544  0.8511
 5065UDC    C1055714  13.568  18.135  12.566  0.1752 -0.7423 -0.6575
 5065UDC    C1155715  13.623  18.266  12.499  0.0040  0.2176  0.4041
 5066UDC     C155716  19.750  17.016   7.998  0.3097  0.6198  0.7131
 5066UDC     C255717  19.763  16.951   7.855  0.4631 -0.0934  0.2977
 5066UDC     C355718  19.628  16.971   7.779  0.5326 -0.6614  0.4888
 5066UDC     C455719  19.617  16.923   7.632 -0.3343 -0.6386  0.3337
 5066UDC     C555720  19.727  16.953   7.530  0.5065  0.1451  0.2981
 5066UDC     C655721  19.720  17.092   7.467 -0.8147  0.4232  0.3390
 5066UDC     C755722  19.678  17.206   7.558  1.2550 -0.8263 -0.3830
 5066UDC     C855723  19.728  17.343   7.517 -0.7031 -0.2994  0.5548
 5066UDC     C955724  19.681  17.468   7.595 -1.2710  0.6121  0.9032
 5066UDC    C1055725  19.727  17.605   7.553  0.1195 -0.2489  0.4756
 5066UDC    C1155726  19.883  17.612   7.555 -0.2532 -0.0502 -0.3957
 5067UDC     C155727  13.267  18.033  15.533 -0.3036 -0.4435 -0.6986
 5067UDC     C255728  13.354  18.076  15.653  0.4256 -1.6615 -0.5763
 5067UDC     C355729  13.485  18.162  15.631  0.8765 -0.3789  0.4185
 5067UDC     C455730  13.558  18.189  15.764 -0.8286  1.0791  1.0028
 5067UDC     C555731  13.478  18.228  15.886 -0.2509  0.4799 -0.5134
 5067UDC     C655732  13.421  18.111  15.972 -0.6910 -0.5593 -0.2835
 5067UDC     C755733  13.307  18.148  16.067  0.2782  0.3274 -0.7875
 5067UDC     C855734  13.256  18.019  16.133 -0.2769 -0.3740  0.0457
 5067UDC     C955735  13.133  18.040  16.224 -0.7341 -0.7049 -0.5512
 5067UDC    C1055736  13.012  18.074  16.140  1.0215  0.1111 -0.4293
 5067UDC    C1155737  12.964  18.216  16.187  0.5815  0.7302  0.0192
 5068UDC     C155738  11.220  11.202  10.997  0.3165 -0.6009 -0.5741
 5068UDC     C255739  11.142  11.094  10.917 -0.4788 -0.5941 -0.7114
 5068UDC     C355740  11.226  11.028  10.805 -0.2517  0.9681  0.4474
 5068UDC     C455741  11.147  10.912  10.743 -0.3631 -0.5169 -1.1624
 5068UDC     C555742  10.995  10.962  10.744 -1.4956 -0.4068  0.7465
 5068UDC     C655743  10.901  10.853  10.692  1.1439 -0.4818 -0.3923
 5068UDC     C755744  10.765  10.903  10.633  0.4664  0.0122  1.2081
 5068UDC     C855745  10.682  10.796  10.555 -0.2522  0.6143 -0.7525
 5068UDC     C955746  10.537  10.827  10.530  0.3576  1.1445 -0.0985
 5068UDC    C1055747  10.452  10.707  10.479  0.4505 -0.1661 -0.2236
 5068UDC    C1155748  10.297  10.728  10.455 -0.6355  0.0874  0.2293
 5069UDC     C155749   7.566  12.971  15.276  0.0657  0.6033 -0.6502
 5069UDC     C255750   7.476  12.923  15.392  0.4071 -0.3287 -0.3276
 5069UDC     C355751   7.541  12.841  15.510  1.5008  0.2479  0.0884
 5069UDC     C455752   7.641  12.908  15.600  0.3574 -0.5894  0.0597
 5069UDC     C555753   7.557  13.031  15.662  0.3457  0.2142  0.0859
 5069UDC     C655754   7.461  12.959  15.764 -0.2223  0.0581 -0.1971
 5069UDC     C755755   7.559  12.926  15.882 -0.6253 -0.8633 -0.7687
 5069UDC     C855756   7.501  12.825  15.986  0.2211 -0.4682 -1.4804
 5069UDC     C955757   7.559  12.785  16.126 -0.3277  0.1249  0.0131
 5069UDC    C1055758   7.446  12.701  16.196 -0.2052 -0.3696 -0.1103
 5069UDC    C1155759   7.336  12.802  16.249  0.8382 -0.4384 -0.5364
 5070UDC     C155760  17.155  10.785  15.636 -0.2778 -0.7652 -0.5551
 5070UDC     C255761  17.268  10.697  15.584 -0.5456 -0.3541  0.3702
 5070UDC     C355762  17.292  10.706  15.436 -0.3348  0.5619  0.6852
 5070UDC     C455763  17.388  10.589  15.391 -0.1797 -0.8463 -0.2331
 5070UDC     C555764  17.354  10.439  15.424 -0.7864  0.5345  0.3369
 5070UDC     C655765  17.442  10.319  15.370  0.0640  0.3384 -0.1060
 5070UDC     C755766  17.444  10.295  15.220  0.0267  0.3658  1.3742
 5070UDC     C855767  17.501  10.154  15.187 -0.9344 -0.3023 -0.9523
 5070UDC     C955768  17.655  10.174  15.207 -0.0996  0.2040 -1.4043
 5070UDC    C1055769  17.759  10.059  15.181 -0.3215  0.6200  0.3290
 5070UDC    C1155770  17.906  10.098  15.145 -1.2766 -0.6220  0.1978
 5071UDC     C155771  10.398  10.449   2.171 -0.1811  0.6306 -0.3080
 5071UDC     C255772  10.360  10.332   2.266  0.4620  0.6867  0.5537
 5071UDC     C355773  10.220  10.379   2.321  0.9363 -0.0203 -0.2916
 5071UDC     C455774  10.102  10.368   2.214 -0.1996 -0.3897  0.9880
 5071UDC     C555775   9.967  10.401   2.266  0.0491 -0.4315  0.3948
 5071UDC     C655776   9.884  10.467   2.154  0.4614  0.0026 -0.2223
 5071UDC     C755777   9.734  10.498   2.186 -0.3156  0.1961 -0.4492
 5071UDC     C855778   9.646  10.390   2.118 -0.1032 -0.9914  0.7776
 5071UDC     C955779   9.501  10.408   2.151  0.7922  1.0729 -0.1985
 5071UDC    C1055780   9.405  10.320   2.066  1.2264 -0.8921 -0.2005
 5071UDC    C1155781   9.499  10.239   1.976  0.1262 -0.2333 -0.1356
 5072UDC     C155782   3.647  13.175  11.311 -0.5449  0.2370  1.2632
 5072UDC     C255783   3.647  13.088  11.181 -1.2416 -0.5356 -0.7499
 5072UDC     C355784   3.731  12.966  11.211 -0.7242  0.2045  0.8327
 5072UDC     C455785   3.710  12.876  11.091  0.9630 -0.2801 -0.1316
 5072UDC     C555786   3.726  12.971  10.974 -0.5386  0.3692 -0.6873
 5072UDC     C655787   3.723  12.887  10.847 -0.3066 -0.3825 -0.3584
 5072UDC     C755788   3.842  12.791  10.834 -0.8466  0.3005  0.5897
 5072UDC     C855789   3.851  12.720  10.691 -0.2037 -2.0302 -0.6691
 5072UDC     C955790   3.900  12.575  10.693 -0.1586  0.1340 -1.0625
 5072UDC    C1055791   3.794  12.469  10.736  0.4596 -0.9174  1.0449
 5072UDC    C1155792   3.732  12.416  10.607 -0.3487 -0.7501  1.1140
 5073UDC     C155793  18.207  18.514  16.006  0.0447  0.0031  1.1085
 5073UDC     C255794  18.125  18.444  15.897 -0.2818  0.9916  1.1767
 5073UDC     C355795  18.176  18.304  15.868 -0.6558  0.0747 -0.0273
 5073UDC     C455796  18.299  18.315  15.779  0.5631  0.8907  0.0522
 5073UDC     C555797  18.328  18.188  15.695 -0.8310  0.0143 -0.1730
 5073UDC     C655798  18.386  18.071  15.780  0.0259  0.2848  0.2567
 5073UDC     C755799  18.448  17.950  15.705 -0.8239  0.1474 -0.1648
 5073UDC     C855800  18.516  17.838  15.795  0.3039  0.5797  0.7904
 5073UDC     C955801  18.630  17.751  15.743 -0.4234 -0.4987 -0.0886
 5073UDC    C1055802  18.768  17.786  15.798 -0.4076 -0.5829  1.6780
 5073UDC    C1155803  18.881  17.692  15.768  1.0853 -0.7075  0.3903
 5074UDC     C155804  15.856  13.761  12.022  1.0773  0.7162 -0.2012
 5074UDC     C255805  15.832  13.910  11.987 -0.0589 -0.5855 -0.1391
 5074UDC     C355806  15.964  13.975  11.934 -0.3804  0.3762 -0.5631
 5074UDC     C455807  15.937  14.123  11.911 -0.9183 -0.9586  0.8976
 5074UDC     C555808  15.913  14.224  12.027 -0.7391  0.5586 -0.2414
 5074UDC     C655809  15.808  14.339  12.009 -0.2648 -0.7329  0.1314
 5074UDC     C755810  15.729  14.389  12.133 -0.3412  0.9691  0.7540
 5074UDC     C855811  15.595  14.426  12.077  0.3380  0.1515  0.1656
 5074UDC     C955812  15.508  14.478  12.198 -0.4710 -0.3328 -0.1602
 5074UDC    C1055813  15.486  14.632  12.194 -0.4060 -0.4470 -0.8190
 5074UDC    C1155814  15.389  14.696  12.305  0.4834 -0.1890 -0.7400
 5075UDC     C155815   6.530  19.557  14.941 -0.6033 -0.6167  0.1914
 5075UDC     C255816   6.402  19.480  14.893 -0.3131 -0.2425 -0.3922
 5075UDC     C355817   6.280  19.575  14.880  0.7311 -0.9432  0.3026
 5075UDC     C455818   6.179  19.565  15.001 -0.1457  0.2688  0.7493
 5075UDC     C555819   6.235  19.610  15.131  0.4055  0.5724 -0.4070
 5075UDC     C655820   6.295  19.746  15.116  0.0462 -0.7822 -0.6819
 5075UDC     C755821   6.355  19.803  15.244  0.4304 -0.2114 -0.8809
 5075UDC     C855822   6.454  19.925  15.217 -0.9233  0.0711  0.7474
 5075UDC     C955823   6.396  20.055  15.258  0.7153  0.5711  0.4826
 5075UDC    C1055824   6.476  20.180  15.236 -0.9735  0.5243 -0.2939
 5075UDC    C1155825   6.615  20.175  15.309  0.2507  0.4790  0.7180
 5076UDC     C155826  17.730  17.400   3.134 -0.8901  0.5813  0.3209
 5076UDC     C255827  17.612  17.475   3.060 -0.5055  0.3543 -0.9378
 5076UDC     C355828  17.655  17.619   3.006  0.0443  0.1484  0.3445
 5076UDC     C455829  17.545  17.688   2.923  0.5249 -0.2263  1.0017
 5076UDC     C555830  17.481  17.582   2.824 -0.9203  0.0745  0.3131
 5076UDC     C655831  17.386  17.610   2.701  0.3503 -0.5995 -0.2656
 5076UDC     C755832  17.327  17.492   2.619 -0.2792  0.1339  0.0160
 5076UDC     C855833  17.426  17.382   2.587  0.1934 -0.6321  0.2335
 5076UDC     C955834  17.331  17.274   2.532 -0.1888  1.0399 -0.2680
 5076UDC    C1055835  17.221  17.221   2.621  0.0016 -0.5466 -0.5597
 5076UDC    C1155836  17.075  17.225   2.565 -0.1213  0.1445  0.8325
 5077UDC     C155837  10.039  18.410   9.382 -0.0739 -0.0014 -0.2551
 5077UDC     C255838   9.953  18.282   9.355  0.6838 -0.2636 -0.0927
 5077UDC     C355839   9.915  18.265   9.204 -0.3685  0.0915  0.6814
 5077UDC     C455840   9.828  18.143   9.192 -1.5560 -0.5872  0.1766
 5077UDC     C555841   9.882  18.009   9.241  0.0023 -1.3254 -0.3980
 5077UDC     C655842   9.771  17.912   9.205 -0.7752  0.2123  0.0683
 5077UDC     C755843   9.797  17.759   9.249 -1.0123  0.0189  0.1485
 5077UDC     C855844   9.701  17.683   9.151  0.0968  0.4742  0.0023
 5077UDC     C955845   9.653  17.545   9.188 -0.0033 -0.0852  0.8005
 5077UDC    C1055846   9.782  17.465   9.217 -0.3373 -0.5420 -0.4873
 5077UDC    C1155847   9.773  17.338   9.293  0.6398  0.1729  0.2885
 5078UDC     C155848   6.651  13.003  18.879  0.0343 -0.6144 -0.3711
 5078UDC     C255849   6.778  13.046  18.959 -1.2130 -0.6117 -0.5416
 5078UDC     C355850   6.752  13.179  19.034 -0.1658  0.4604 -0.2544
 5078UDC     C455851   6.885  13.238  19.081  0.5107 -1.0327 -0.5562
 5078UDC     C555852   6.868  13.362  19.166 -1.2817  0.3916 -0.3345
 5078UDC     C655853   6.990  13.433  19.229 -0.4991  0.8732  0.2440
 5078UDC     C755854   6.965  13.571  19.294  0.3320  0.2262  0.4455
 5078UDC     C855855   7.102  13.618  19.353  0.1615 -0.1123 -0.7725
 5078UDC     C955856   7.172  13.515  19.458 -0.4183  0.2238  0.1157
 5078UDC    C1055857   7.083  13.503  19.582  0.2800 -0.0747 -0.7187
 5078UDC    C1155858   7.138  13.427  19.701 -0.7023  0.0797  0.3864
 5079UDC     C155859  10.920   6.548   5.399 -0.5647 -0.2349  0.5138
 5079UDC     C255860  11.058   6.623   5.417  0.0416 -0.4775 -0.5167
 5079UDC     C355861  11.178   6.599   5.324 -0.7312  1.0341  0.5992
 5079UDC     C455862  11.179   6.449   5.297  0.2468  0.2718  0.6207
 5079UDC     C555863  11.312   6.375   5.326  0.0583  0.5112 -0.4428
 5079UDC     C655864  11.317   6.227   5.283  0.5291 -1.2005 -0.7557
 5079UDC     C755865  11.283   6.201   5.134  0.2510 -0.2032 -0.8730
 5079UDC     C855866  11.319   6.056   5.082  0.0746 -0.9167 -0.6613
 5079UDC     C955867  11.247   5.941   5.143  0.4931  0.4290 -0.5296
 5079UDC    C1055868  11.315   5.841   5.235 -0.2380 -0.8455  0.7058
 5079UDC    C1155869  11.207   5.769   5.317 -0.4357  0.5706  0.0567
 5080UDC     C155870   8.408   5.979   0.834 -0.6159  0.5263  0.0871
 5080UDC     C255871   8.359   6.116   0.803 -0.4633 -0.1712 -1.4038
 5080UDC     C355872   8.214   6.133   0.741 -1.2053  0.3520 -0.7789
 5080UDC     C455873   8.124   6.244   0.795 -0.6002 -0.3413 -0.4177
 5080UDC     C555874   7.982   6.185   0.795  0.0538 -0.1583  0.9912
 5080UDC     C655875   7.869   6.289   0.798  0.2804  1.3119  1.2708
 5080UDC     C755876   7.726   6.230   0.831 -0.1634  0.5456 -1.0506
 5080UDC     C855877   7.620   6.312   0.763  0.4654  0.4975 -0.7769
 5080UDC     C955878   7.487   6.300   0.850  0.1342  0.0825 -0.5536
 5080UDC    C1055879   7.361   6.376   0.814 -0.6981 -0.3682 -0.6983
 5080UDC    C1155880   7.261   6.349   0.924  0.1544 -0.7195  0.1183
 5081UDC     C155881   7.636   8.880  11.290 -0.2159 -0.8675  1.0475
 5081UDC     C255882   7.639   8.817  11.427 -0.7594  0.2199 -0.7247
 5081UDC     C355883   7.730   8.892  11.530 -0.4770  0.3973  0.9774
 5081UDC     C455884   7.875   8.861  11.504  0.8652 -0.9007  0.6091
 5081UDC     C555885   7.982   8.926  11.598  0.2988  0.6642  0.5815
 5081UDC     C655886   8.109   8.969  11.513  0.6390  1.1835 -0.2922
 5081UDC     C755887   8.227   9.028  11.596  0.6131  0.4718  0.3588
 5081UDC     C855888   8.355   9.032  11.516 -0.2492  0.8828  0.5877
 5081UDC     C955889   8.462   8.919  11.559  0.5452 -0.8795  0.5584
 5081UDC    C1055890   8.553   8.953  11.675 -0.7268 -0.5576  0.9976
 5081UDC    C1155891   8.616   9.092  11.655 -0.4650  0.0086 -0.6715
 5082UDC     C155892  16.036   2.551   8.041  0.9745 -0.3120 -0.6198
 5082UDC     C255893  16.100   2.421   7.999 -0.2184  1.0659  0.5748
 5082UDC     C355894  16.145   2.411   7.856 -0.0196 -0.6245  0.2624
 5082UDC     C455895  16.050   2.427   7.740  0.8933 -0.5696  0.5443
 5082UDC     C555896  16.137   2.473   7.631 -0.3453 -1.5347  1.7461
 5082UDC     C655897  16.086   2.450   7.486  0.9271  0.6561  0.3199
 5082UDC     C755898  16.132   2.517   7.363  0.8505 -0.7236  0.0815
 5082UDC     C855899  16.161   2.669   7.358  0.1510 -0.5067 -0.3132
 5082UDC     C955900  16.037   2.762   7.387 -0.5823  0.7842 -2.1064
 5082UDC    C1055901  16.072   2.911   7.394 -0.0912 -0.5517  0.5305
 5082UDC    C1155902  16.177   2.966   7.495  0.8046 -0.1110  0.3411
 5083UDC     C155903   2.607   7.923  12.047 -0.6237  1.0181  0.8456
 5083UDC     C255904   2.635   7.849  11.909 -0.0550  0.8983 -0.3210
 5083UDC     C355905   2.746   7.915  11.824 -0.1154 -0.9336 -0.0365
 5083UDC     C455906   2.875   7.956  11.903  0.1611  0.5964  1.1670
 5083UDC     C555907   2.965   8.040  11.814 -0.1534 -0.5184 -0.4189
 5083UDC     C655908   3.108   8.068  11.851  0.1316 -0.0777 -0.7866
 5083UDC     C755909   3.177   8.157  11.753 -0.2933  0.4859 -0.0502
 5083UDC     C855910   3.185   8.297  11.821  0.6998 -0.4807 -0.8411
 5083UDC     C955911   3.106   8.424  11.772 -0.3479 -0.7496  1.2756
 5083UDC    C1055912   3.145   8.560  11.832 -0.2436 -0.3235  1.4896
 5083UDC    C1155913   3.079   8.686  11.778  0.7077 -0.2537 -0.8659
 5084UDC     C155914  15.029   1.128  17.016 -0.6697 -0.5616 -0.1949
 5084UDC     C255915  15.079   1.200  17.137 -1.1925  0.0942 -1.0574
 5084UDC     C355916  14.971   1.279  17.208  0.2989  0.3692 -0.6280
 5084UDC     C455917  14.994   1.281  17.368  0.4345  0.2642  0.4521
 5084UDC     C555918  14.998   1.148  17.445  0.7592  0.3277  0.5987
 5084UDC     C655919  14.952   1.154  17.591 -0.0147 -0.6768 -0.6238
 5084UDC     C755920  14.928   1.008  17.649  0.5113  0.3060  0.8360
 5084UDC     C855921  14.927   0.972  17.792 -0.9393 -0.5107 -1.5685
 5084UDC     C955922  15.052   1.020  17.861  0.0507  0.4948  0.7845
 5084UDC    C1055923  15.186   0.979  17.792  0.1700  1.3187  0.0322
 5084UDC    C1155924  15.316   1.031  17.864 -0.7876 -0.0216 -0.0589
 5085UDC     C155925  18.014   7.494  17.017  1.1405 -1.6798 -0.1971
 5085UDC     C255926  17.989   7.638  17.081 -0.2926 -0.1575  0.4965
 5085UDC     C355927  17.845   7.683  17.064  0.4225  0.0368  0.0698
 5085UDC     C455928  17.797   7.724  16.920 -0.6705  1.2762  0.7866
 5085UDC     C555929  17.646   7.777  16.938 -1.4357  0.3289 -0.9510
 5085UDC     C655930  17.575   7.810  16.811 -1.4583 -1.0015  0.9111
 5085UDC     C755931  17.560   7.702  16.704  0.8522 -0.1032  0.7119
 5085UDC     C855932  17.532   7.728  16.556  0.4938  0.3573  0.5653
 5085UDC     C955933  17.436   7.635  16.475  0.7408 -0.3382  0.2522
 5085UDC    C1055934  17.408   7.688  16.333  1.0080 -0.2934  0.6289
 5085UDC    C1155935  17.282   7.627  16.279  0.5063  0.5527 -0.6002
 5086UDC     C155936   5.674   9.704   8.326 -0.3236 -0.2725 -0.1436
 5086UDC     C255937   5.570   9.770   8.424  2.0751  0.3120 -0.1088
 5086UDC     C355938   5.594   9.925   8.432 -0.1547 -0.3593  0.3019
 5086UDC     C455939   5.473   9.983   8.507 -0.0305 -0.3595 -0.4940
 5086UDC     C555940   5.421   9.898   8.623 -0.1641  1.6274  0.6823
 5086UDC     C655941   5.498   9.919   8.753 -0.6873 -0.4280 -0.2686
 5086UDC     C755942   5.513  10.071   8.795 -0.0341  0.4369  0.2684
 5086UDC     C855943   5.598  10.107   8.922 -0.2115  0.1528  0.7044
 5086UDC     C955944   5.731  10.170   8.881  0.2814  0.7299 -0.2133
 5086UDC    C1055945   5.821  10.225   8.993 -0.2424  0.0945  0.5610
 5086UDC    C1155946   5.953  10.293   8.970 -0.0915 -0.3571  0.0146
 5087UDC     C155947   8.151  13.227  16.443 -0.9983  0.0432 -0.1912
 5087UDC     C255948   8.198  13.178  16.585 -0.2567 -0.5913  0.0165
 5087UDC     C355949   8.239  13.030  16.587  0.9232 -0.2050  0.1549
 5087UDC     C455950   8.116  12.941  16.571  0.1803 -0.1978 -0.4276
 5087UDC     C555951   8.022  12.966  16.691 -0.8144 -0.3283 -0.3879
 5087UDC     C655952   7.906  12.868  16.697 -0.3386  0.6747 -0.3052
 5087UDC     C755953   7.891  12.820  16.841 -0.2522 -0.1527 -0.6847
 5087UDC     C855954   7.749  12.843  16.894 -0.0063 -0.3279 -0.3661
 5087UDC     C955955   7.664  12.789  16.777  0.5620  0.3540  0.5151
 5087UDC    C1055956   7.508  12.789  16.797 -0.0138 -0.1069 -0.3631
 5087UDC    C1155957   7.412  12.714  16.709 -0.7398  1.6374 -0.2958
 5088UDC     C155958  13.463  15.012  13.883  0.5120  0.3949 -1.0232
 5088UDC     C255959  13.552  14.892  13.843  0.1466 -0.4229  1.6839
 5088UDC     C355960  13.642  14.822  13.950 -0.2940 -0.1178  1.1371
 5088UDC     C455961  13.710  14.698  13.881 -0.1890  0.3854 -0.0720
 5088UDC     C555962  13.831  14.639  13.955 -0.9810 -0.4258  0.6561
 5088UDC     C655963  13.911  14.555  13.854  0.0486  0.4719 -0.1663
 5088UDC     C755964  13.998  14.439  13.920  1.3959  0.5955  0.2986
 5088UDC     C855965  13.906  14.325  13.969 -0.3880  0.0959 -0.0092
 5088UDC     C955966  13.997  14.229  14.047  0.5732  1.2293 -1.1287
 5088UDC    C1055967  13.930  14.110  14.107  0.7759  0.5960  0.4796
 5088UDC    C1155968  13.873  14.004  14.002 -0.3620 -0.1637 -0.2986
 5089UDC     C155969  14.721  12.459   4.722 -0.0247  0.0567 -0.9727
 5089UDC     C255970  14.645  12.438   4.585 -0.4028 -0.0291  0.0320
 5089UDC     C355971  14.655  12.317   4.494 -0.3402  0.8391 -0.2670
 5089UDC     C455972  14.522  12.333   4.408 -0.3582 -0.5237 -0.2882
 5089UDC     C555973  14.540  12.395   4.267 -0.1058 -0.1946 -0.7856
 5089UDC     C655974  14.596  12.539   4.265  0.8696 -0.0494  0.8667
 5089UDC     C755975  14.579  12.602   4.123 -1.1360 -0.2463 -0.4011
 5089UDC     C855976  14.656  12.729   4.088  0.0062 -0.5886 -0.5164
 5089UDC     C955977  14.641  12.764   3.937 -0.3646 -0.3892 -0.7246
 5089UDC    C1055978  14.685  12.655   3.839  0.7083  0.4140  0.4621
 5089UDC    C1155979  14.835  12.618   3.867 -0.1624  0.7527 -1.0679
 5090UDC     C155980   7.878   5.061   7.455  1.3152  0.2597 -0.2589
 5090UDC     C255981   7.893   5.018   7.307  0.0290  0.7135 -0.5197
 5090UDC     C355982   7.761   5.004   7.225  0.8515 -0.0754 -0.1688
 5090UDC     C455983   7.791   4.980   7.078  0.3016 -0.7199 -0.2453
 5090UDC     C555984   7.676   5.022   6.985  1.0031 -0.0644  0.0552
 5090UDC     C655985   7.645   5.175   6.997  0.0238 -0.0336  0.4203
 5090UDC     C755986   7.503   5.216   6.950 -0.1010 -1.3106 -1.0523
 5090UDC     C855987   7.379   5.200   7.043  0.9371 -0.2804 -0.0567
 5090UDC     C955988   7.244   5.281   7.011 -0.5088 -0.1338 -0.0733
 5090UDC    C1055989   7.249   5.431   7.054 -0.2552  0.3092  0.2128
 5090UDC    C1155990   7.353   5.524   6.978  0.1527  0.6783 -0.1418
 5091UDC     C155991  12.638  12.349  12.297 -0.5093 -0.6581 -0.1634
 5091UDC     C255992  12.630  12.399  12.444  0.1859 -0.1027 -0.0904
 5091UDC     C355993  12.536  12.327  12.543 -0.7891  0.0240  0.2735
 5091UDC     C455994  12.414  12.410  12.552  1.0364 -0.2861 -0.9576
 5091UDC     C555995  12.339  12.395  12.686  0.0698  1.2751  1.0129
 5091UDC     C655996  12.286  12.541  12.714  0.2717  0.3511 -0.7619
 5091UDC     C755997  12.192  12.567  12.829  0.5966 -0.3034 -0.2372
 5091UDC     C855998  12.211  12.710  12.885 -0.8852  0.4851 -0.3817
 5091UDC     C955999  12.105  12.758  12.989 -0.2472  0.0076  0.8712
 5091UDC    C1056000  12.157  12.873  13.083  0.0539  0.9753  0.4197
 5091UDC    C1156001  12.233  12.989  13.005  0.1456  0.2920 -0.3481
 5092UDC     C156002   0.080  10.653  16.404  1.1536 -0.0387  0.0090
 5092UDC     C256003   0.160  10.760  16.333  0.3313 -0.0889 -0.4491
 5092UDC     C356004   0.229  10.693  16.210  0.0785  0.2282  0.4909
 5092UDC     C456005   0.338  10.756  16.129 -0.5105  0.0450 -0.4966
 5092UDC     C556006   0.355  10.698  15.986 -0.2282  0.3097  0.0633
 5092UDC     C656007   0.389  10.786  15.867  0.3339  0.6457  0.3059
 5092UDC     C756008   0.473  10.897  15.921 -0.4657 -0.6908 -0.5741
 5092UDC     C856009   0.479  11.006  15.821 -0.0295  0.0179  0.6460
 5092UDC     C956010   0.528  11.138  15.875 -0.7104 -0.5049 -0.5459
 5092UDC    C1056011   0.493  11.269  15.796 -0.9970 -0.1604  0.0662
 5092UDC    C1156012   0.534  11.396  15.867 -0.1720 -0.0734 -0.1710
 5093UDC     C156013  10.919  14.807  15.737  0.0273 -0.0861 -0.0671
 5093UDC     C256014  10.993  14.925  15.678 -0.6843 -0.1419 -0.5032
 5093UDC     C356015  10.938  15.069  15.715  0.7661  0.2581 -0.0347
 5093UDC     C456016  10.979  15.206  15.656  0.2583  0.2209 -1.0012
 5093UDC     C556017  10.942  15.326  15.746 -0.1482  0.6186 -0.2972
 5093UDC     C656018  10.927  15.461  15.663 -0.4879 -0.0402  0.0548
 5093UDC     C756019  11.030  15.470  15.551  0.3441 -0.2030  0.7477
 5093UDC     C856020  11.022  15.611  15.479 -0.5706  1.0315 -1.4411
 5093UDC     C956021  11.150  15.654  15.414 -0.6779 -0.3294  0.7216
 5093UDC    C1056022  11.177  15.803  15.376  0.8288 -0.3515  0.9378
 5093UDC    C1156023  11.079  15.915  15.427 -0.1298  0.3069 -0.8452
 5094UDC     C156024   8.654   4.810  13.967  0.4210 -0.6358  0.1346
 5094UDC     C256025   8.618   4.963  13.984  0.3589  0.4953  0.2183
 5094UDC     C356026   8.627   5.048  13.855 -0.6987 -1.3014  0.1209
 5094UDC     C456027   8.613   5.200  13.885  0.0121 -0.9364 -1.2016
 5094UDC     C556028   8.619   5.284  13.749 -0.0254  0.0718 -0.4588
 5094UDC     C656029   8.474   5.276  13.700 -0.6330 -0.0315 -0.3160
 5094UDC     C756030   8.356   5.348  13.774  0.3137  0.8630  0.4651
 5094UDC     C856031   8.218   5.331  13.713 -1.1021 -0.3658 -0.5912
 5094UDC     C956032   8.189   5.353  13.560  0.4225 -0.2647  0.4275
 5094UDC    C1056033   8.052   5.305  13.512 -0.2892 -0.5980  0.4076
 5094UDC    C1156034   8.028   5.156  13.484  0.5261  0.2595  0.7453
 5095UDC     C156035  13.786   7.175   5.378 -0.1083 -0.9594 -0.0877
 5095UDC     C256036  13.676   7.283   5.344 -0.3247 -0.1057  0.6068
 5095UDC     C356037  13.762   7.413   5.308  0.0633  0.3115 -0.8239
 5095UDC     C456038  13.680   7.539   5.265 -0.3122 -0.0077  0.2115
 5095UDC     C556039  13.751   7.666   5.207 -0.2880  0.1933 -0.2829
 5095UDC     C656040  13.683   7.690   5.071 -0.2992 -1.1303  0.8107
 5095UDC     C756041  13.677   7.583   4.966  0.5302  0.5336 -0.3729
 5095UDC     C856042  13.680   7.620   4.824  0.1176 -0.6413 -0.3146
 5095UDC     C956043  13.731   7.517   4.725 -0.0043 -0.2628 -0.2288
 5095UDC    C1056044  13.670   7.522   4.585  1.0713 -0.0715 -0.2449
 5095UDC    C1156045  13.700   7.395   4.508 -0.7231 -0.6163  0.5899
 5096UDC     C156046   7.039  16.464   6.528 -0.2717 -0.6958  0.3661
 5096UDC     C256047   7.132  16.354   6.543  0.2750 -0.5843  0.8555
 5096UDC     C356048   7.245  16.357   6.432  0.0696 -0.1664 -0.9438
 5096UDC     C456049   7.347  16.466   6.456 -0.2710  0.3923 -0.2160
 5096UDC     C556050   7.482  16.436   6.391  0.2010  0.6329 -1.1722
 5096UDC     C656051   7.599  16.534   6.416 -0.5549 -0.6541  0.6570
 5096UDC     C756052   7.575  16.680   6.384 -0.1053 -0.0332  0.0752
 5096UDC     C856053   7.696  16.772   6.407 -0.0370 -0.3395 -0.2684
 5096UDC     C956054   7.686  16.922   6.374 -0.2794  0.1375  0.0621
 5096UDC    C1056055   7.825  16.998   6.391  0.7768  0.7327  0.6601
 5096UDC    C1156056   7.849  17.078   6.262 -0.4024 -0.1296  0.0449
 5097UDC     C156057  11.188  18.087   7.286 -0.4482 -1.5854 -0.1190
 5097UDC     C256058  11.295  18.113   7.179 -0.2851 -0.3951  0.8404
 5097UDC     C356059  11.413  18.205   7.222  0.2457  0.6119  0.1163
 5097UDC     C456060  11.500  18.239   7.101 -0.0935  0.6234 -0.7953
 5097UDC     C556061  11.489  18.121   7.003  1.4065 -0.6463  0.3745
 5097UDC     C656062  11.549  18.125   6.858  0.3080  0.1396 -0.6493
 5097UDC     C756063  11.485  18.173   6.731  0.0244  0.8180  1.2335
 5097UDC     C856064  11.600  18.193   6.630 -0.4054  0.0387 -0.9247
 5097UDC     C956065  11.709  18.304   6.655  0.5874  0.5192 -0.1255
 5097UDC    C1056066  11.834  18.283   6.568  0.4315 -0.0007 -0.7450
 5097UDC    C1156067  11.941  18.186   6.620  0.1897  0.0788 -0.6895
 5098UDC     C156068  11.645  14.232  15.363 -0.0765 -1.0349  0.0143
 5098UDC     C256069  11.793  14.189  15.396  0.6605  0.2578 -0.2608
 5098UDC     C356070  11.892  14.228  15.283 -0.1778  0.6075 -0.7709
 5098UDC     C456071  12.036  14.274  15.322  0.7226  0.6426  0.5551
 5098UDC     C556072  12.123  14.197  15.430 -0.1148  0.5338  1.1739
 5098UDC     C656073  12.267  14.250  15.441 -0.0842  0.0051  0.0826
 5098UDC     C756074  12.375  14.147  15.443 -0.4464 -0.7087  0.0171
 5098UDC     C856075  12.519  14.189  15.428  0.1405  0.3642  0.6465
 5098UDC     C956076  12.614  14.209  15.543 -0.4408  0.5889  0.0639
 5098UDC    C1056077  12.642  14.078  15.625  0.2797 -0.1858  0.1038
 5098UDC    C1156078  12.770  14.017  15.563 -0.0462 -0.0350 -0.3711
 5099UDC     C156079  15.175   4.840   6.148  0.1079  0.1216  0.2821
 5099UDC     C256080  15.153   4.869   6.303  0.3159 -0.0349  0.1593
 5099UDC     C356081  15.192   4.751   6.400 -1.0121  0.9535  0.1401
 5099UDC     C456082  15.211   4.790   6.547 -0.2752 -0.8845  0.4539
 5099UDC     C556083  15.244   4.677   6.643 -0.7915  0.4884 -0.6220
 5099UDC     C656084  15.125   4.673   6.740 -0.6259  1.2013 -0.6011
 5099UDC     C756085  15.109   4.541   6.828 -1.7351 -0.1788 -0.2838
 5099UDC     C856086  14.988   4.457   6.790 -0.5341 -0.4845 -0.2123
 5099UDC     C956087  14.971   4.349   6.902 -0.4154  0.2671  1.0020
 5099UDC    C1056088  14.956   4.430   7.030  0.0061  0.5113  0.2889
 5099UDC    C1156089  14.834   4.521   7.059 -0.3123 -0.4428  0.4202
 5100UDC     C156090   9.055   7.546  15.136  0.5193  0.5674 -0.7204
 5100UDC     C256091   8.926   7.591  15.064  0.2126 -0.2141 -1.5928
 5100UDC     C356092   8.940   7.673  14.933  0.1913  0.3545 -0.1899
 5100UDC     C456093   8.994   7.812  14.950  0.8935 -0.4643  0.0944
 5100UDC     C556094   8.903   7.906  14.868 -0.3917 -0.3612  0.0603
 5100UDC     C656095   8.943   8.053  14.886 -0.3370 -0.1838 -0.2315
 5100UDC     C756096   8.877   8.160  14.795 -0.2688 -0.6580 -0.2408
 5100UDC     C856097   8.956   8.173  14.662  0.9265 -0.7723  1.1690
 5100UDC     C956098   8.892   8.261  14.550 -0.9490 -0.0491 -0.6625
 5100UDC    C1056099   8.917   8.407  14.592  0.0799 -0.0187 -0.0629
 5100UDC    C1156100   8.856   8.479  14.474 -0.3516  0.7555  0.4771
 5101UDC     C156101  11.852  10.277   6.988  0.4574 -0.6851  0.1893
 5101UDC     C256102  11.731  10.360   6.944  0.4677  1.3152 -0.0005
 5101UDC     C356103  11.598  10.296   6.907  0.0765 -0.5831 -0.3292
 5101UDC     C456104  11.524  10.235   7.024 -0.0679  0.2857 -0.3741
 5101UDC     C556105  11.503  10.330   7.151  0.0012 -0.0194 -0.5036
 5101UDC     C656106  11.376  10.302   7.237 -0.4303 -0.2835  0.4762
 5101UDC     C756107  11.388  10.364   7.376  0.4397  0.4571 -0.4246
 5101UDC     C856108  11.320  10.274   7.481 -0.2372  0.8716 -0.1703
 5101UDC     C956109  11.172  10.283   7.454  0.6912 -0.5135  0.5635
 5101UDC    C1056110  11.125  10.428   7.475  1.1994 -0.1837  0.0917
 5101UDC    C1156111  10.976  10.443   7.421 -0.2508 -0.3161 -0.7407
 5102UDC     C156112  12.193   7.920   0.228  0.2194 -0.3643 -0.4716
 5102UDC     C256113  12.181   7.774   0.256 -0.4361 -0.5557  0.8238
 5102UDC     C356114  12.068   7.706   0.184 -1.2386 -0.7195  0.0285
 5102UDC     C456115  12.104   7.560   0.164  0.3419  1.6958 -0.4400
 5102UDC     C556116  12.018   7.475   0.074  0.1303  0.3006 -0.6735
 5102UDC     C656117  12.077   7.417  -0.057  0.4456 -0.2195  0.5110
 5102UDC     C756118  12.001   7.352  -0.169 -0.7916 -0.4529 -0.3051
 5102UDC     C856119  12.094   7.324  -0.290  0.8684 -0.0278  0.6102
 5102UDC     C956120  12.040   7.230  -0.397  1.3226 -0.3540 -0.2765
 5102UDC    C1056121  11.981   7.097  -0.330 -1.1446  0.4127  0.4020
 5102UDC    C1156122  11.914   6.991  -0.416 -0.1194 -0.7278  0.5996
 5103UDC     C156123   9.843  16.864  11.654 -0.4410  0.9856  0.5468
 5103UDC     C256124   9.803  16.925  11.788 -1.3456 -1.1480  0.2193
 5103UDC     C356125   9.684  16.853  11.840  0.5079  0.5491  0.2277
 5103UDC     C456126   9.701  16.697  11.838 -0.2794  0.6227 -1.1849
 5103UDC     C556127   9.586  16.618  11.905  0.4444 -0.5559 -0.2299
 5103UDC     C656128   9.534  16.489  11.840 -0.8807  0.4480 -1.2335
 5103UDC     C756129   9.593  16.449  11.714  0.4542 -0.0881  0.3317
 5103UDC     C856130   9.526  16.312  11.668  0.1187 -0.1350 -0.2485
 5103UDC     C956131   9.384  16.323  11.611 -0.1755 -0.4943  0.4447
 5103UDC    C1056132   9.370  16.376  11.464 -0.2788 -1.2658 -0.5599
 5103UDC    C1156133   9.229  16.359  11.399 -0.0414 -0.2452 -0.4228
 5104UDC     C156134   7.992   1.298   2.827  0.5947  0.9653  0.3450
 5104UDC     C256135   8.129   1.225   2.853  0.5647  0.2414  0.1483
 5104UDC     C356136   8.191   1.143   2.735  0.2568 -0.0586 -0.9318
 5104UDC     C456137   8.226   0.997   2.758  0.6281  0.9177  0.8543
 5104UDC     C556138   8.104   0.907   2.784  0.2350  0.2769 -0.4474
 5104UDC     C656139   8.132   0.766   2.839  0.1561  0.4617 -0.3064
 5104UDC     C756140   8.279   0.743   2.855  0.0387  1.2244 -0.6805
 5104UDC     C856141   8.317   0.649   2.966  0.9360 -0.2443  0.2698
 5104UDC     C956142   8.462   0.625   2.999  0.4442  0.9170  1.2027
 5104UDC    C1056143   8.557   0.744   3.019 -0.3132  0.4942 -0.2831
 5104UDC    C1156144   8.604   0.813   2.887 -1.0055  0.6308  0.8800
 5105UDC     C156145  17.468   2.569   6.178  0.7757  0.4075 -1.4340
 5105UDC     C256146  17.395   2.692   6.123 -0.4546 -1.1954 -0.2193
 5105UDC     C356147  17.249   2.666   6.164 -0.2022  1.8004 -0.8463
 5105UDC     C456148  17.218   2.656   6.317 -0.1988 -0.1401  0.1124
 5105UDC     C556149  17.064   2.634   6.312 -0.2894  0.4435  0.1134
 5105UDC     C656150  17.001   2.728   6.205 -0.5297 -0.6240  0.3256
 5105UDC     C756151  16.848   2.700   6.217  0.2974  0.2741 -0.1013
 5105UDC     C856152  16.821   2.557   6.259  0.2411  0.1111 -0.5808
 5105UDC     C956153  16.700   2.542   6.351  0.7050  0.6185  0.7945
 5105UDC    C1056154  16.730   2.515   6.505 -0.8554 -1.4291  0.9668
 5105UDC    C1156155  16.609   2.474   6.588  0.9193  0.8654  0.7468
 5106UDC     C156156   5.280  11.318   2.424 -0.3644 -0.8991 -1.3764
 5106UDC     C256157   5.169  11.285   2.521 -0.3832  0.0495  0.4492
 5106UDC     C356158   5.062  11.373   2.458  0.1290  0.3009 -0.6114
 5106UDC     C456159   4.919  11.385   2.511  0.6743 -0.2397 -0.1687
 5106UDC     C556160   4.826  11.468   2.424  1.2644  1.1567 -0.6618
 5106UDC     C656161   4.789  11.388   2.291 -0.6178 -1.2253 -1.0877
 5106UDC     C756162   4.690  11.479   2.213  0.3930  0.9983  0.0478
 5106UDC     C856163   4.545  11.462   2.260  1.0575  1.1502  0.8867
 5106UDC     C956164   4.486  11.323   2.275  0.2592  0.4992 -0.0204
 5106UDC    C1056165   4.362  11.323   2.359  0.3966 -0.6019  1.2359
 5106UDC    C1156166   4.243  11.377   2.273 -0.3611 -0.0504  0.5906
 5107UDC     C156167   1.561   2.819   0.350  0.7167  0.5617 -0.5132
 5107UDC     C256168   1.564   2.969   0.363 -0.2806  0.4729  0.4502
 5107UDC     C356169   1.427   3.026   0.349  0.3505 -0.2322 -0.8652
 5107UDC     C456170   1.421   3.184   0.347  0.6538 -0.2129  0.4135
 5107UDC     C556171   1.300   3.245   0.276 -0.1089 -0.4764  0.6347
 5107UDC     C656172   1.287   3.173   0.139  0.4705 -0.2650 -0.0001
 5107UDC     C756173   1.407   3.211   0.054 -1.1991  0.0732  0.0651
 5107UDC     C856174   1.384   3.350   0.001  0.1795 -0.4537  0.0904
 5107UDC     C956175   1.504   3.412  -0.077 -1.2711  0.7705 -0.2844
 5107UDC    C1056176   1.628   3.381   0.013 -0.2383  1.4864  0.5968
 5107UDC    C1156177   1.645   3.452   0.143 -1.0006  0.0390 -0.0973
 5108UDC     C156178  19.457   9.157  16.457  0.3749  0.4708 -0.1227
 5108UDC     C256179  19.534   9.261  16.379  0.1861  0.4966 -0.0572
 5108UDC     C356180  19.591   9.357  16.487 -0.8118 -0.5429  0.4955
 5108UDC     C456181  19.611   9.512  16.482 -0.2142  0.5132  0.3712
 5108UDC     C556182  19.703   9.551  16.371 -0.3502  0.1147  0.3069
 5108UDC     C656183  19.769   9.684  16.393 -0.8455 -0.8642 -0.1601
 5108UDC     C756184  19.671   9.797  16.344  0.3478  0.9093 -0.7230
 5108UDC     C856185  19.731   9.937  16.360 -0.6148 -0.0967  0.5285
 5108UDC     C956186  19.631  10.040  16.300  0.4821 -0.7921 -0.0180
 5108UDC    C1056187  19.607  10.173  16.375 -0.8394  0.7514 -0.3361
 5108UDC    C1156188  19.729  10.267  16.371 -0.0079  0.1417 -0.4640
 5109UDC     C156189   3.855   0.569  19.660  0.2510  0.7130 -0.3375
 5109UDC     C256190   3.994   0.598  19.584  0.5719  0.9057 -0.0392
 5109UDC     C356191   4.112   0.544  19.668  0.5908  0.5801 -0.1153
 5109UDC     C456192   4.245   0.626  19.641  0.9511  0.1977  1.4187
 5109UDC     C556193   4.258   0.781  19.665  0.7323  0.5812  0.3263
 5109UDC     C656194   4.403   0.814  19.631  0.4326 -0.0188 -0.1597
 5109UDC     C756195   4.452   0.947  19.568  0.7330 -0.5498  0.9539
 5109UDC     C856196   4.380   1.060  19.649 -1.0974 -0.0510  0.6333
 5109UDC     C956197   4.449   1.193  19.609  1.5481 -0.1702 -0.6799
 5109UDC    C1056198   4.338   1.301  19.613 -0.9199 -0.1654  0.3071
 5109UDC    C1156199   4.231   1.276  19.507  1.6381 -0.5629 -0.5268
 5110UDC     C156200  18.682  12.760   6.559  0.0625 -0.0677  0.5740
 5110UDC     C256201  18.734  12.612   6.553 -0.1372 -0.6710  1.0744
 5110UDC     C356202  18.827  12.589   6.432  1.3555  0.6713  1.1369
 5110UDC     C456203  18.849  12.434   6.415 -1.1745 -0.5025  0.5355
 5110UDC     C556204  18.975  12.413   6.326 -0.7678 -0.4677 -0.8647
 5110UDC     C656205  18.984  12.262   6.286 -1.0148  0.2396  0.4593
 5110UDC     C756206  19.101  12.252   6.181  0.5996 -0.4249 -0.6486
 5110UDC     C856207  19.061  12.304   6.041 -0.5259  0.0853 -0.0606
 5110UDC     C956208  19.159  12.285   5.922 -0.2527  1.4008  0.8568
 5110UDC    C1056209  19.300  12.339   5.935 -0.4286 -0.3631  0.2283
 5110UDC    C1156210  19.309  12.478   5.878  0.4781  0.4991  0.0758
 5111UDC     C156211   4.107  12.593  12.999 -0.0391  0.1989 -0.3657
 5111UDC     C256212   4.080  12.738  13.023  0.8994  0.4052  0.9225
 5111UDC     C356213   3.944  12.762  13.083 -0.0793 -0.3711 -0.3447
 5111UDC     C456214   3.917  12.911  13.124  1.1276 -1.0675 -0.3185
 5111UDC     C556215   3.766  12.928  13.140  0.1146 -0.7082  0.7846
 5111UDC     C656216   3.701  12.925  13.000 -0.1714 -0.3947  0.2153
 5111UDC     C756217   3.544  12.935  12.994  0.5063  1.1689  0.3699
 5111UDC     C856218   3.485  13.077  12.999 -0.0361 -0.1468  1.1112
 5111UDC     C956219   3.342  13.064  12.939  0.4639  0.2066  0.7539
 5111UDC    C1056220   3.270  13.181  12.870 -0.3710 -1.1579  0.8418
 5111UDC    C1156221   3.276  13.309  12.952 -0.4708 -0.7623 -0.4136
 5112UDC     C156222   1.600   2.203   6.096  0.4571  0.0294 -0.3177
 5112UDC     C256223   1.521   2.317   6.034  0.1695 -0.4250  0.8871
 5112UDC     C356224   1.555   2.450   6.095 -0.2394 -0.7835  0.1457
 5112UDC     C456225   1.421   2.530   6.113  0.3386  0.1999 -0.2957
 5112UDC     C556226   1.415   2.666   6.189 -0.5388  0.4125 -0.4448
 5112UDC     C656227   1.367   2.780   6.101 -1.6267  0.4612 -0.2382
 5112UDC     C756228   1.330   2.897   6.191  0.8091  0.8850 -0.6222
 5112UDC     C856229   1.179   2.940   6.158 -0.1363 -1.0105  0.6952
 5112UDC     C956230   1.087   2.961   6.279 -0.2429 -0.2553 -0.1151
 5112UDC    C1056231   0.956   3.031   6.259  0.2125  0.0453 -0.6363
 5112UDC    C1156232   0.954   3.185   6.277 -0.8385 -0.2002 -0.2154
 5113UDC     C156233  17.510   9.320  17.582  0.2316  0.4767 -1.2948
 5113UDC     C256234  17.654   9.373  17.596 -0.6212  0.6398  0.8245
 5113UDC     C356235  17.700   9.395  17.737 -0.5631  0.1001 -0.3684
 5113UDC     C456236  17.593   9.472  17.821 -0.3963  0.1371 -0.0421
 5113UDC     C556237  17.637   9.514  17.960  0.4421  0.1983 -0.3156
 5113UDC     C656238  17.762   9.604  17.961 -0.3600  1.0863 -0.4561
 5113UDC     C756239  17.759   9.719  18.072 -0.3889  0.2090  0.8060
 5113UDC     C856240  17.850   9.706  18.195 -0.4435 -0.5684  0.3810
 5113UDC     C956241  17.818   9.814  18.295 -0.3521  0.2377 -0.7671
 5113UDC    C1056242  17.850   9.946  18.218 -0.2448  0.5293 -0.1278
 5113UDC    C1156243  18.001   9.956  18.175  0.9188 -0.2970 -0.2709
 5114UDC     C156244   3.291  18.190   1.698  0.0379 -0.2626 -1.3224
 5114UDC     C256245   3.232  18.329   1.664  0.0813 -1.0380  0.0659
 5114UDC     C356246   3.107  18.348   1.576 -0.4293  0.4882 -1.3582
 5114UDC     C456247   3.090  18.497   1.539 -0.3560 -0.6427  0.0298
 5114UDC     C556248   3.066  18.595   1.659 -0.0478 -0.3517 -0.4350
 5114UDC     C656249   2.929  18.650   1.691  0.1214 -0.5188 -0.4965
 5114UDC     C756250   2.954  18.739   1.817 -0.1179 -0.9520 -0.9241
 5114UDC     C856251   2.838  18.808   1.896  0.8131  0.2768  0.1149
 5114UDC     C956252   2.797  18.955   1.852  0.9466  0.4969 -0.1172
 5114UDC    C1056253   2.740  19.036   1.977 -0.3786  0.3690  0.4849
 5114UDC    C1156254   2.820  19.017   2.109  0.4838 -0.2183  0.7889
 5115UDC     C156255  11.156  13.933   0.172 -0.8028  0.3351 -0.3145
 5115UDC     C256256  11.197  14.009   0.038  0.2120 -0.7729  0.4473
 5115UDC     C356257  11.060  14.060  -0.028 -0.2190  0.2361  0.1280
 5115UDC     C456258  10.933  13.978   0.013 -0.2929  0.1031 -1.0589
 5115UDC     C556259  10.813  14.032  -0.056  0.3421 -1.1674  0.8637
 5115UDC     C656260  10.678  13.961  -0.026  1.1895 -0.1027 -0.1104
 5115UDC     C756261  10.567  13.976  -0.133  0.8933 -1.8723  1.1634
 5115UDC     C856262  10.426  13.987  -0.073 -0.3790  0.8822 -1.8192
 5115UDC     C956263  10.327  13.902  -0.161  0.1140  0.3012  0.4509
 5115UDC    C1056264  10.187  13.908  -0.096 -0.7562  0.2168 -0.2698
 5115UDC    C1156265  10.071  13.928  -0.194 -0.1263 -0.4649  1.1805
 5116UDC     C156266   3.663   0.798  16.794 -0.1870 -0.1911  0.1431
 5116UDC     C256267   3.535   0.792  16.887 -0.2883  0.5507 -0.2235
 5116UDC     C356268   3.553   0.760  17.035 -0.3209  0.8754 -0.5651
 5116UDC     C456269   3.430   0.750  17.122  1.2800  0.9211  0.4698
 5116UDC     C556270   3.327   0.860  17.108  0.0209  0.0485 -0.1794
 5116UDC     C656271   3.383   1.000  17.134  0.3697 -0.0007  0.5787
 5116UDC     C756272   3.401   1.027  17.286 -0.3521  0.6962  0.1777
 5116UDC     C856273   3.459   1.162  17.313  1.0601 -0.5612 -1.0479
 5116UDC     C956274   3.507   1.194  17.462 -0.6873 -0.3998  1.2374
 5116UDC    C1056275   3.499   1.339  17.520  0.3703  0.1350  0.1555
 5116UDC    C1156276   3.598   1.432  17.438 -0.8951 -1.1335  0.9269
 5117UDC     C156277  12.550   0.909   4.694  0.8714 -0.8495 -0.9586
 5117UDC     C256278  12.606   0.819   4.581  0.1406 -0.1378  0.2651
 5117UDC     C356279  12.514   0.851   4.469  0.5734  0.4658 -0.9281
 5117UDC     C456280  12.378   0.785   4.494 -0.0784 -0.1264  0.5180
 5117UDC     C556281  12.272   0.821   4.389 -1.6929 -1.0264  0.6798
 5117UDC     C656282  12.137   0.756   4.440 -0.3494 -0.6065 -0.6102
 5117UDC     C756283  12.087   0.835   4.567 -0.5090  0.4605 -1.0462
 5117UDC     C856284  12.040   0.978   4.530 -1.1623  0.2823  1.0320
 5117UDC     C956285  11.982   1.060   4.647  0.0178  0.3568 -0.3924
 5117UDC    C1056286  12.072   1.052   4.771 -0.6730 -0.0804  0.0904
 5117UDC    C1156287  12.047   0.936   4.866  1.3567 -0.0103 -0.6361
 5118UDC     C156288   5.538  13.417   7.140 -0.3322 -0.9058  0.0532
 5118UDC     C256289   5.551  13.406   6.985  0.1848 -0.1150 -1.0428
 5118UDC     C356290   5.561  13.543   6.908 -0.0161  0.3044  0.1404
 5118UDC     C456291   5.439  13.629   6.932 -0.8080 -0.4656  0.5386
 5118UDC     C556292   5.352  13.648   6.808  0.4268 -0.3454 -0.1702
 5118UDC     C656293   5.240  13.548   6.813 -0.3486  0.9343  0.5344
 5118UDC     C756294   5.184  13.510   6.668  0.1292  0.7259 -0.4408
 5118UDC     C856295   5.042  13.447   6.645  1.0656 -0.8419 -0.2788
 5118UDC     C956296   5.019  13.447   6.490 -0.2706 -0.0470  0.1694
 5118UDC    C1056297   5.020  13.577   6.408 -0.3651  0.0770  0.6020
 5118UDC    C1156298   4.889  13.653   6.413 -0.2188 -1.2379 -0.5185
 5119UDC     C156299   6.378  19.467  13.493 -0.0133 -0.0950  0.2368
 5119UDC     C256300   6.379  19.310  13.467  0.0697  0.8060  0.3845
 5119UDC     C356301   6.520  19.248  13.494 -0.5369  0.2483  0.2008
 5119UDC     C456302   6.604  19.283  13.617 -0.4281 -0.6882 -0.4224
 5119UDC     C556303   6.743  19.230  13.624 -0.1299 -0.0871  1.6807
 5119UDC     C656304   6.831  19.292  13.731  0.0144  0.8360  0.2136
 5119UDC     C756305   6.982  19.302  13.683 -0.4020 -0.1117 -0.4379
 5119UDC     C856306   7.084  19.233  13.765 -0.7442  0.1501 -0.3140
 5119UDC     C956307   7.184  19.335  13.811 -0.4789  0.3364 -0.1257
 5119UDC    C1056308   7.265  19.416  13.706 -0.0252 -0.8035 -0.3445
 5119UDC    C1156309   7.379  19.502  13.763 -0.0712 -0.0158 -0.1547
 5120UDC     C156310  19.958   8.880  19.961 -0.6529  0.3750  0.3340
 5120UDC     C256311  20.091   8.826  20.034  0.2354  0.2496 -0.0934
 5120UDC     C356312  20.224   8.867  19.977  0.7193 -0.2113  0.9239
 5120UDC     C456313  20.339   8.885  20.081 -0.6587  1.0122 -0.7780
 5120UDC     C556314  20.431   8.766  20.094 -0.8775  0.2210 -0.4809
 5120UDC     C656315  20.565   8.804  20.157  0.6292  0.0181  1.3710
 5120UDC     C756316  20.635   8.677  20.195 -0.6180  0.6929 -0.2561
 5120UDC     C856317  20.536   8.603  20.292 -0.1586  0.1315 -0.8420
 5120UDC     C956318  20.514   8.459  20.240 -1.1954  0.4008  0.3954
 5120UDC    C1056319  20.445   8.358  20.328  0.1420  0.8473 -1.0085
 5120UDC    C1156320  20.477   8.213  20.292 -0.1134  0.3744  0.4090
 5121UDC     C156321   8.110   2.171   2.934 -0.3912  0.9316  0.8009
 5121UDC     C256322   8.042   2.249   3.046 -0.3551  0.5760  0.3670
 5121UDC     C356323   8.025   2.394   3.002  0.5730 -0.3722  0.2075
 5121UDC     C456324   7.904   2.434   2.925  0.7309 -0.1418 -0.6017
 5121UDC     C556325   7.765   2.399   2.987 -0.1841 -0.7240  0.0611
 5121UDC     C656326   7.724   2.480   3.106 -0.0025  1.1029 -0.1750
 5121UDC     C756327   7.715   2.623   3.055 -0.0395  0.5447 -0.1623
 5121UDC     C856328   7.691   2.711   3.177 -0.7002  0.0096  0.2901
 5121UDC     C956329   7.625   2.838   3.123 -0.1502 -0.0539  0.5432
 5121UDC    C1056330   7.568   2.947   3.215  0.7534  0.5299 -0.4878
 5121UDC    C1156331   7.624   3.086   3.182  0.1772  0.1020 -0.8779
 5122UDC     C156332   4.655   9.695   1.193  1.0910 -0.0919  0.3138
 5122UDC     C256333   4.600   9.796   1.297 -0.9907  0.1858 -0.8981
 5122UDC     C356334   4.585   9.733   1.443  0.5585  0.8787 -0.1755
 5122UDC     C456335   4.570   9.806   1.573  0.6668 -0.5257  0.2316
 5122UDC     C556336   4.680   9.909   1.595  0.6249 -0.4041 -0.9541
 5122UDC     C656337   4.811   9.838   1.611 -0.4206 -0.0708 -0.4492
 5122UDC     C756338   4.941   9.927   1.598  0.9550 -0.0795 -0.7889
 5122UDC     C856339   4.968   9.953   1.447  0.4661 -0.2211 -0.1474
 5122UDC     C956340   5.101  10.028   1.406  0.6285  0.1870 -0.6193
 5122UDC    C1056341   5.118  10.046   1.255  0.2265 -0.6454 -0.6186
 5122UDC    C1156342   4.982  10.101   1.198 -1.2634  0.7971  0.3045
 5123UDC     C156343  13.779   5.416  15.941  0.2656  0.0856  0.5295
 5123UDC     C256344  13.845   5.275  15.931 -0.2036  0.0955 -1.1461
 5123UDC     C356345  13.852   5.205  16.076  1.2134  0.3960  0.5450
 5123UDC     C456346  13.863   5.056  16.051 -0.3901  0.3889  1.1298
 5123UDC     C556347  13.803   4.986  16.179 -0.9986 -0.2932 -0.1797
 5123UDC     C656348  13.846   4.838  16.178  0.2216 -0.4414  0.2397
 5123UDC     C756349  13.990   4.818  16.137 -0.5052  0.6485 -0.0785
 5123UDC     C856350  14.046   4.675  16.142  0.0084  0.4890  0.0528
 5123UDC     C956351  14.155   4.651  16.042  0.6549 -0.3231 -0.1817
 5123UDC    C1056352  14.164   4.496  16.022  0.2138  0.8124 -0.2260
 5123UDC    C1156353  14.023   4.464  15.986 -0.0872  0.1119  0.6586
 5124UDC     C156354  12.059  11.156   4.446  0.6569 -0.6407 -0.6761
 5124UDC     C256355  11.942  11.106   4.531  0.3546  0.6283 -0.1608
 5124UDC     C356356  11.903  10.952   4.542 -0.8081  0.4556 -0.0207
 5124UDC     C456357  11.779  10.916   4.612 -0.5407 -1.0969 -1.0225
 5124UDC     C556358  11.785  10.970   4.761 -0.1518 -0.7333 -0.2547
 5124UDC     C656359  11.654  11.026   4.810  0.5510 -0.3459 -0.0361
 5124UDC     C756360  11.536  10.929   4.833  0.9013 -0.0057  1.3501
 5124UDC     C856361  11.406  11.001   4.830 -0.1424 -0.6770  0.4578
 5124UDC     C956362  11.383  11.095   4.953 -0.4246 -0.8414 -0.2344
 5124UDC    C1056363  11.242  11.154   4.959  0.0118  0.8624  0.5605
 5124UDC    C1156364  11.140  11.038   4.939  0.6203  0.4250 -0.5185
 5125UDC     C156365  12.020   1.112  15.462 -0.6913  0.5530  1.1249
 5125UDC     C256366  12.051   1.246  15.535 -0.7273  0.5122 -0.4808
 5125UDC     C356367  12.200   1.262  15.573  1.1117  0.5261 -0.6299
 5125UDC     C456368  12.261   1.161  15.665  1.0787  0.0489 -0.6627
 5125UDC     C556369  12.413   1.198  15.691 -0.9437 -1.1759 -0.0452
 5125UDC     C656370  12.422   1.298  15.808  0.1305  0.7535  1.0513
 5125UDC     C756371  12.497   1.222  15.918  0.9205 -0.2748 -0.7598
 5125UDC     C856372  12.505   1.332  16.024  0.1603 -0.9329 -0.4753
 5125UDC     C956373  12.544   1.463  15.965 -1.0033 -0.2628  1.1678
 5125UDC    C1056374  12.550   1.580  16.061  0.2741  0.1156  0.2220
 5125UDC    C1156375  12.628   1.559  16.188 -0.4659  1.9995  0.8282
 5126UDC     C156376   8.466   8.469  19.985  0.1918 -0.3445  0.0725
 5126UDC     C256377   8.497   8.606  20.054  0.2732  0.5759  0.0364
 5126UDC     C356378   8.517   8.575  20.210 -0.2231 -0.3948 -0.1120
 5126UDC     C456379   8.593   8.696  20.276 -0.8699  0.1294  0.3913
 5126UDC     C556380   8.674   8.667  20.403  0.1750  0.4951  0.6532
 5126UDC     C656381   8.758   8.791  20.457  0.7338  0.2495  0.3257
 5126UDC     C756382   8.859   8.753  20.556 -1.1876  0.9492 -0.0069
 5126UDC     C856383   8.967   8.860  20.584 -0.4980 -0.6996 -1.2307
 5126UDC     C956384   9.041   8.840  20.720 -0.5581  0.0240 -0.3808
 5126UDC    C1056385   9.178   8.774  20.693 -0.2753 -0.7053  0.4779
 5126UDC    C1156386   9.274   8.876  20.630 -0.3777 -0.2191 -0.1890
 5127UDC     C156387  16.899   6.673   0.695  0.1571  0.4291  0.4028
 5127UDC     C256388  16.813   6.781   0.774 -0.1691 -0.1606 -0.2525
 5127UDC     C356389  16.735   6.704   0.874 -0.1881 -0.9472  0.0200
 5127UDC     C456390  16.690   6.794   0.996  0.1252  0.4066 -0.2676
 5127UDC     C556391  16.564   6.879   0.982  0.2032 -0.1936 -0.6428
 5127UDC     C656392  16.544   6.949   1.117 -0.0313  0.3269  0.6309
 5127UDC     C756393  16.407   7.039   1.121  0.4399  0.8916  0.4816
 5127UDC     C856394  16.384   7.101   1.258 -0.5667  0.5394  1.1400
 5127UDC     C956395  16.306   7.235   1.250 -0.2147  0.2787 -0.2001
 5127UDC    C1056396  16.275   7.298   1.389 -0.5193  0.8492  0.2233
 5127UDC    C1156397  16.398   7.370   1.457  0.6602 -0.0368  0.3019
 5128UDC     C156398   2.234   7.959  16.529  0.0553  0.3709 -0.9275
 5128UDC     C256399   2.118   7.999  16.621 -0.3015 -0.0513  0.5028
 5128UDC     C356400   2.033   8.102  16.546 -0.0047 -0.0489  0.1460
 5128UDC     C456401   2.060   8.245  16.587  0.0851  0.9907 -1.0713
 5128UDC     C556402   1.996   8.352  16.494 -0.8380 -1.0787 -1.2425
 5128UDC     C656403   2.026   8.351  16.344  0.4032 -0.2627  0.1968
 5128UDC     C756404   1.975   8.476  16.271  0.2355 -1.7406  0.0015
 5128UDC     C856405   2.085   8.577  16.276  0.5215 -0.3047 -0.8319
 5128UDC     C956406   2.033   8.701  16.198 -0.3724  0.1942 -0.2699
 5128UDC    C1056407   2.126   8.821  16.214  1.0277  0.2532  0.2236
 5128UDC    C1156408   2.163   8.843  16.355  0.1295 -0.1633 -1.0125
 5129UDC     C156409  11.352   4.478  10.409  0.5899 -0.3269  0.4760
 5129UDC     C256410  11.465   4.379  10.411  0.2098  0.9778 -0.3292
 5129UDC     C356411  11.457   4.280  10.530 -0.3366  1.0577 -0.4515
 5129UDC     C456412  11.321   4.228  10.584  0.7853 -1.4940 -0.2903
 5129UDC     C556413  11.322   4.096  10.663 -1.4147 -0.7058  0.3938
 5129UDC     C656414  11.282   4.123  10.809  0.2459  0.1767 -0.9132
 5129UDC     C756415  11.299   4.020  10.930 -0.5067  0.0657  0.6934
 5129UDC     C856416  11.441   3.979  10.958 -1.3268 -0.2182 -0.0986
 5129UDC     C956417  11.550   4.084  10.972 -0.0353  0.5619 -0.2102
 5129UDC    C1056418  11.676   4.043  11.054 -0.1227 -0.6437 -0.3852
 5129UDC    C1156419  11.753   3.930  10.986  0.5638  0.6370  0.2807
 5130UDC     C156420   6.920   7.550  13.945 -0.0994 -0.4105 -0.7257
 5130UDC     C256421   6.933   7.457  14.067 -0.2119  0.8998  0.8698
 5130UDC     C356422   6.813   7.447  14.158  0.4678 -0.5003  0.2044
 5130UDC     C456423   6.767   7.572  14.243 -0.3142  1.6393  0.7424
 5130UDC     C556424   6.676   7.539  14.360  0.2382 -0.2527  0.0386
 5130UDC     C656425   6.676   7.650  14.469  0.8007 -0.1806 -0.2919
 5130UDC     C756426   6.570   7.653  14.577 -0.5562  0.6873  0.0811
 5130UDC     C856427   6.430   7.695  14.539  0.1960  0.3871 -0.3348
 5130UDC     C956428   6.322   7.649  14.634 -0.7498  1.2348 -0.4349
 5130UDC    C1056429   6.351   7.728  14.767  0.4099  0.5995 -0.2309
 5130UDC    C1156430   6.255   7.697  14.887  0.0023  0.3568 -0.4760
 5131UDC     C156431  19.530   4.738  11.121  0.0179  0.7887 -0.4750
 5131UDC     C256432  19.585   4.827  11.018 -0.1105  0.5340  0.0057
 5131UDC     C356433  19.560   4.982  11.051  0.3169 -0.8302  0.2158
 5131UDC     C456434  19.684   5.070  11.080  0.3471 -0.9784 -0.3850
 5131UDC     C556435  19.647   5.204  11.138 -0.2892  0.0946  0.9738
 5131UDC     C656436  19.520   5.270  11.080  0.0917 -1.5233 -0.4296
 5131UDC     C756437  19.516   5.403  11.165  0.1261 -0.0793  0.2097
 5131UDC     C856438  19.389   5.488  11.146  0.1233 -0.4849 -0.4205
 5131UDC     C956439  19.386   5.636  11.174 -0.1000  0.2883  1.0629
 5131UDC    C1056440  19.434   5.660  11.314 -1.0119 -0.4772  0.0710
 5131UDC    C1156441  19.411   5.801  11.366 -0.5111 -0.4458  0.2514
 5132UDC     C156442  16.459   7.298  17.663  0.3162  0.2328  0.3938
 5132UDC     C256443  16.568   7.200  17.708 -0.0850 -0.4961  0.7642
 5132UDC     C356444  16.646   7.163  17.580 -0.6038 -0.1864  0.6782
 5132UDC     C456445  16.561   7.135  17.456 -0.8115  0.1274  0.1538
 5132UDC     C556446  16.635   7.055  17.341  1.3702 -0.4718  0.6455
 5132UDC     C656447  16.540   7.057  17.221  0.8649 -1.3273 -0.2663
 5132UDC     C756448  16.589   6.989  17.092  0.0535  0.6425 -0.4569
 5132UDC     C856449  16.492   6.919  16.994  0.1231 -0.3575  0.0405
 5132UDC     C956450  16.494   6.944  16.841 -0.6423  0.2295  0.1960
 5132UDC    C1056451  16.360   6.941  16.771 -1.3149  0.1574 -0.1446
 5132UDC    C1156452  16.298   6.801  16.760 -0.4029 -0.9522 -1.2994
 5133UDC     C156453  15.841  12.420  17.160  1.0749  0.3807 -0.9224
 5133UDC     C256454  15.794  12.419  17.305 -0.2399  0.0378  0.3631
 5133UDC     C356455  15.895  12.405  17.417 -0.0374 -1.1771 -0.4781
 5133UDC     C456456  15.844  12.294  17.497 -0.5836  0.9748 -0.1462
 5133UDC     C556457  15.825  12.160  17.424 -0.6999 -0.8606  0.0849
 5133UDC     C656458  15.784  12.048  17.517  0.2266  0.6701  0.6253
 5133UDC     C756459  15.672  11.954  17.466 -0.4274  0.2328  0.2060
 5133UDC     C856460  15.657  11.829  17.548  0.9960  0.4342 -0.5723
 5133UDC     C956461  15.519  11.767  17.518 -0.4168  0.5202 -0.3014
 5133UDC    C1056462  15.447  11.695  17.631  0.3766 -0.8599  0.6096
 5133UDC    C1156463  15.548  11.603  17.696 -0.8964  0.0012 -0.2474
 5134UDC     C156464  12.235  13.459   3.469  0.1721 -0.1460  0.2332
 5134UDC     C256465  12.099  13.453   3.381 -1.0773  0.2049  0.3782
 5134UDC     C356466  12.016  13.582   3.359  0.8848  0.7644  0.3826
 5134UDC     C456467  11.872  13.592   3.310 -0.3969  0.1119  0.0339
 5134UDC     C556468  11.765  13.508   3.373 -0.4573 -1.4479 -1.2776
 5134UDC     C656469  11.679  13.597   3.474  1.0408 -0.1784 -0.1294
 5134UDC     C756470  11.585  13.494   3.550 -1.4747  0.0403 -0.0396
 5134UDC     C856471  11.478  13.557   3.645 -0.7777 -0.3044  0.5110
 5134UDC     C956472  11.396  13.470   3.745  0.4747  1.5103 -0.5686
 5134UDC    C1056473  11.488  13.374   3.831 -0.0084 -0.2526 -0.2600
 5134UDC    C1156474  11.403  13.273   3.915 -0.0303  0.7324 -0.2875
 5135UDC     C156475   6.036   8.083   2.710 -0.0422 -0.9583  1.2381
 5135UDC     C256476   6.043   8.076   2.555  0.1841 -0.5844 -0.3281
 5135UDC     C356477   6.126   7.958   2.513 -0.4386 -0.9809  0.0200
 5135UDC     C456478   6.113   7.949   2.361 -0.3585  0.9175 -0.0909
 5135UDC     C556479   6.221   7.844   2.318  0.7844  0.3028 -0.8667
 5135UDC     C656480   6.166   7.695   2.325 -0.4528  0.2959  0.4260
 5135UDC     C756481   6.054   7.672   2.228  0.9903  0.7871 -1.0819
 5135UDC     C856482   5.978   7.553   2.283 -0.6203  0.6958  0.2902
 5135UDC     C956483   5.838   7.549   2.216  0.7132 -0.0325 -0.0668
 5135UDC    C1056484   5.856   7.518   2.064  1.8868  0.0561  0.3700
 5135UDC    C1156485   5.719   7.507   1.978 -0.2338 -0.0676 -0.4108
 5136UDC     C156486   3.287  15.107   9.864  0.6306  0.1293 -0.9978
 5136UDC     C256487   3.184  15.187   9.775 -0.3548 -1.1106 -1.1789
 5136UDC     C356488   3.151  15.125   9.638  0.3342 -0.3124  1.0870
 5136UDC     C456489   3.048  15.021   9.613  0.7283 -0.1025 -0.1133
 5136UDC     C556490   3.054  14.956   9.469 -0.6656 -0.4606 -0.1634
 5136UDC     C656491   3.008  15.041   9.357  0.1121 -0.3102  0.2435
 5136UDC     C756492   2.855  15.077   9.359  0.4813  0.0256 -0.6123
 5136UDC     C856493   2.789  15.065   9.222 -0.4277  0.0182  0.6219
 5136UDC     C956494   2.681  15.174   9.195 -0.0787  1.5612 -0.7589
 5136UDC    C1056495   2.684  15.309   9.262 -0.1241 -0.9206 -0.7136
 5136UDC    C1156496   2.557  15.383   9.225 -0.0250  0.1582 -1.1281
 5137UDC     C156497  16.678  16.922  18.038  0.7365 -0.7607 -0.7395
 5137UDC     C256498  16.588  16.909  17.911  0.2929 -1.5599  0.3289
 5137UDC     C356499  16.435  16.881  17.929 -0.4063  0.1722  0.3220
 5137UDC     C456500  16.413  16.753  18.007 -0.7980  0.1403  1.1796
 5137UDC     C556501  16.315  16.637  17.965  0.0159 -1.1394 -0.9487
 5137UDC     C656502  16.292  16.550  18.090  0.0121 -0.0449  0.1445
 5137UDC     C756503  16.214  16.417  18.081 -0.2521  0.3538 -0.2418
 5137UDC     C856504  16.192  16.338  18.217  0.1389  0.1474  1.0826
 5137UDC     C956505  16.092  16.226  18.222 -0.1656  0.2816 -0.4914
 5137UDC    C1056506  16.150  16.084  18.231 -0.0983 -0.4923  1.0043
 5137UDC    C1156507  16.030  15.974  18.231  0.5521  0.2332  0.9131
 5138UDC     C156508   7.675  18.434   8.557 -0.0240  1.5279  1.2142
 5138UDC     C256509   7.818  18.402   8.609  0.5149  0.3433  0.3365
 5138UDC     C356510   7.834  18.332   8.740  0.1275  0.1875 -0.1329
 5138UDC     C456511   7.980  18.314   8.769 -0.1548 -0.1126  0.6142
 5138UDC     C556512   8.061  18.445   8.744  1.3117 -0.4253  0.9862
 5138UDC     C656513   8.206  18.420   8.782 -0.6506  0.9093  0.3653
 5138UDC     C756514   8.272  18.289   8.724 -0.3005  0.1570  0.4160
 5138UDC     C856515   8.426  18.291   8.740 -0.1056 -1.0680  0.6865
 5138UDC     C956516   8.488  18.164   8.687  1.3637  1.1682 -0.2440
 5138UDC    C1056517   8.638  18.153   8.716 -0.2291  0.9023 -0.2035
 5138UDC    C1156518   8.667  18.154   8.871 -0.2368 -0.4452 -0.7914
 5139UDC     C156519  18.248   0.917  15.028  0.0685  0.2937 -1.7774
 5139UDC     C256520  18.223   0.786  15.106 -0.4433  0.8769  0.6425
 5139UDC     C356521  18.193   0.659  15.023 -0.0724  0.0656  0.7021
 5139UDC     C456522  18.223   0.515  15.068  0.7819 -0.6148  0.1083
 5139UDC     C556523  18.194   0.438  14.939  0.9857  0.3587  0.0483
 5139UDC     C656524  18.277   0.298  14.931  0.4407  0.3119 -0.4017
 5139UDC     C756525  18.246   0.202  14.810 -0.2713 -0.5777 -0.3202
 5139UDC     C856526  18.286   0.052  14.832 -0.2442  0.2385 -0.7961
 5139UDC     C956527  18.437   0.046  14.818  0.7533 -0.6852 -1.5121
 5139UDC    C1056528  18.483   0.073  14.670 -0.4324 -0.4468  0.0715
 5139UDC    C1156529  18.465  -0.052  14.585 -0.6721 -0.8724 -0.1515
 5140UDC     C156530  19.102   4.397  13.254  0.0666  1.2064  0.0328
 5140UDC     C256531  19.058   4.444  13.392 -0.6040  0.7602  0.3159
 5140UDC     C356532  19.176   4.489  13.469 -1.8541 -0.2418 -0.8538
 5140UDC     C456533  19.137   4.615  13.547 -0.1737 -0.6233 -0.7790
 5140UDC     C556534  19.246   4.667  13.641  1.4574  0.2932 -0.4215
 5140UDC     C656535  19.372   4.721  13.588  0.3887  0.7287  0.5635
 5140UDC     C756536  19.468   4.608  13.537  0.7040  0.3618  0.6442
 5140UDC     C856537  19.622   4.646  13.549  0.6574  0.0529 -0.4685
 5140UDC     C956538  19.709   4.529  13.497 -0.2088 -0.9527  0.1720
 5140UDC    C1056539  19.716   4.398  13.581 -0.6127 -0.6313 -0.5834
 5140UDC    C1156540  19.765   4.395  13.732 -0.2727 -0.3152 -0.1165
 5141UDC     C156541  14.884   4.753  17.992 -0.3398 -0.5073 -0.0349
 5141UDC     C256542  14.799   4.879  17.970 -0.8024  0.3032 -0.6851
 5141UDC     C356543  14.879   5.007  18.001 -0.0324 -0.7030 -0.0093
 5141UDC     C456544  14.782   5.131  18.010  0.8368  0.2136 -0.8658
 5141UDC     C556545  14.649   5.101  18.090 -0.5759  0.4569  0.5778
 5141UDC     C656546  14.578   5.222  18.151 -0.5276 -0.6865  0.1949
 5141UDC     C756547  14.427   5.243  18.145 -1.4582 -0.5671 -0.6969
 5141UDC     C856548  14.382   5.378  18.208 -0.7746  0.4928  0.6188
 5141UDC     C956549  14.227   5.386  18.217  0.2149  0.0217 -0.3573
 5141UDC    C1056550  14.195   5.509  18.298  1.1341 -1.0389  0.0056
 5141UDC    C1156551  14.050   5.544  18.339  1.0544  0.0209  0.3521
 5142UDC     C156552   5.720  16.068  19.502  0.0121  0.5100  0.8626
 5142UDC     C256553   5.656  16.171  19.584 -0.3141 -0.2394 -0.5561
 5142UDC     C356554   5.602  16.297  19.508 -0.4735 -0.0828  0.1745
 5142UDC     C456555   5.546  16.406  19.600  0.4257 -1.5177  0.7851
 5142UDC     C556556   5.523  16.530  19.514 -0.4564  0.3511 -0.2994
 5142UDC     C656557   5.534  16.666  19.588  0.8684 -0.0222  0.2748
 5142UDC     C756558   5.665  16.740  19.614  0.4481 -0.5291 -0.3621
 5142UDC     C856559   5.634  16.875  19.678  0.1094 -0.1614  0.5732
 5142UDC     C956560   5.768  16.925  19.742 -0.6580 -0.6653 -0.6145
 5142UDC    C1056561   5.846  17.012  19.643  0.0112 -0.4067  0.0864
 5142UDC    C1156562   5.770  17.139  19.612  1.0397  1.8060  0.4673
 5143UDC     C156563   1.619   1.194   9.671 -0.0452 -0.1393  0.4888
 5143UDC     C256564   1.470   1.146   9.657 -0.9199 -1.0441 -0.1860
 5143UDC     C356565   1.441   1.037   9.757  0.7457  0.2200 -0.2217
 5143UDC     C456566   1.310   0.971   9.720  0.0485  0.9645  0.0519
 5143UDC     C556567   1.300   0.828   9.785  0.0734  0.8871 -0.1650
 5143UDC     C656568   1.174   0.744   9.758  1.0884 -0.4125 -0.3282
 5143UDC     C756569   1.196   0.621   9.671  0.5947  0.5627 -0.0568
 5143UDC     C856570   1.312   0.537   9.737 -0.0743 -0.7069 -0.0672
 5143UDC     C956571   1.340   0.396   9.680 -0.3988  0.0924  0.4670
 5143UDC    C1056572   1.471   0.334   9.722  0.3701  0.8129 -0.3267
 5143UDC    C1156573   1.583   0.392   9.635  0.2118  0.0950 -0.4736
 5144UDC     C156574   1.351  15.783   3.702  0.0760 -0.5113 -0.3699
 5144UDC     C256575   1.225  15.826   3.777  0.7364  0.2038 -0.7855
 5144UDC     C356576   1.271  15.925   3.889  0.3045  0.4686  1.4723
 5144UDC     C456577   1.150  15.962   3.981 -1.0926 -0.5108  0.2463
 5144UDC     C556578   1.179  16.063   4.091  0.3258 -1.1095 -0.2038
 5144UDC     C656579   1.053  16.139   4.131  0.1356 -0.3165  0.5074
 5144UDC     C756580   1.008  16.245   4.026 -1.0208 -0.5310 -0.6478
 5144UDC     C856581   0.874  16.317   4.068  0.0026  0.9872  0.1545
 5144UDC     C956582   0.851  16.445   3.986 -0.5169 -0.0410 -0.2870
 5144UDC    C1056583   0.702  16.486   3.986 -0.2705 -0.0015 -0.7058
 5144UDC    C1156584   0.676  16.614   3.893  0.8352 -0.1539  0.0836
 5145UDC     C156585  18.479   2.241  12.984  0.5560 -0.7109 -1.2152
 5145UDC     C256586  18.597   2.261  12.899 -0.2418 -0.0852  1.1672
 5145UDC     C356587  18.707   2.143  12.894  0.1158  0.6655  0.1000
 5145UDC     C456588  18.825   2.143  12.796 -0.3553 -0.0029 -0.4110
 5145UDC     C556589  18.926   2.034  12.818 -0.8756  0.0307 -0.0604
 5145UDC     C656590  19.064   2.054  12.760 -0.6312 -0.4099  0.5492
 5145UDC     C756591  19.151   1.919  12.737  0.3544  1.4209 -0.3136
 5145UDC     C856592  19.306   1.927  12.724 -1.0233  0.5266  0.0129
 5145UDC     C956593  19.389   1.831  12.631  0.8522  0.2635  0.7799
 5145UDC    C1056594  19.524   1.897  12.636 -0.2759 -0.2266  0.5605
 5145UDC    C1156595  19.564   1.989  12.521 -1.1137  0.9718 -0.9435
 5146UDC     C156596  15.133   8.614  18.213  0.4989  0.2897  1.1103
 5146UDC     C256597  15.184   8.588  18.354 -0.7325 -1.3773  0.1451
 5146UDC     C356598  15.087   8.596  18.472 -0.1665  0.6338 -1.0673
 5146UDC     C456599  15.006   8.722  18.502 -0.1728 -0.8224 -0.2683
 5146UDC     C556600  14.877   8.727  18.422  0.4775  0.3722 -0.4560
 5146UDC     C656601  14.799   8.599  18.425  0.3118  0.8935 -1.0054
 5146UDC     C756602  14.692   8.592  18.321  0.1648 -0.2259 -0.2111
 5146UDC     C856603  14.754   8.563  18.182 -1.0242  0.9724  0.6763
 5146UDC     C956604  14.672   8.619  18.057  1.0126 -0.7724 -0.4808
 5146UDC    C1056605  14.704   8.522  17.942  1.2180  0.1313 -0.3617
 5146UDC    C1156606  14.853   8.475  17.929  0.4171 -0.3730 -0.2136
 5147UDC     C156607  15.368   7.559  19.525 -0.5006  0.1645 -0.1117
 5147UDC     C256608  15.240   7.466  19.539 -0.1738 -0.3258  0.0995
 5147UDC     C356609  15.254   7.314  19.545  0.3823  0.3063  0.4310
 5147UDC     C456610  15.123   7.239  19.522 -0.1058 -0.0137  0.1866
 5147UDC     C556611  15.044   7.256  19.652 -1.0662 -0.3817 -0.3776
 5147UDC     C656612  14.896   7.206  19.652 -0.5831  0.5821  0.3802
 5147UDC     C756613  14.784   7.280  19.588 -0.0275 -0.4003 -0.7121
 5147UDC     C856614  14.800   7.431  19.596 -0.2173  0.3638 -0.0732
 5147UDC     C956615  14.694   7.475  19.495  0.2888  0.3584  0.9274
 5147UDC    C1056616  14.722   7.608  19.419  0.1099 -0.0533 -0.0275
 5147UDC    C1156617  14.597   7.642  19.343  1.1172 -0.2931  0.7626
 5148UDC     C156618   0.543  15.822  17.812  0.8222 -0.5843  0.4161
 5148UDC     C256619   0.527  15.874  17.662  0.5583 -0.2142 -0.1687
 5148UDC     C356620   0.384  15.901  17.606  0.1298  0.6396  0.3603
 5148UDC     C456621   0.292  15.777  17.614  0.2344  2.4094  0.0399
 5148UDC     C556622   0.148  15.803  17.566  0.3394  0.1218  0.7942
 5148UDC     C656623   0.121  15.894  17.441  0.3173  0.0351  0.3879
 5148UDC     C756624  -0.004  15.851  17.355 -0.1310  0.3143 -0.6928
 5148UDC     C856625  -0.027  15.876  17.211  0.3706 -0.6172  0.4119
 5148UDC     C956626  -0.128  15.806  17.125  0.6613  0.7798  0.9144
 5148UDC    C1056627  -0.102  15.842  16.978 -0.1244 -0.2931  0.3503
 5148UDC    C1156628   0.043  15.808  16.921  0.8177  0.3211 -0.0010
 5149UDC     C156629  13.823  18.929   9.987  0.7237  0.6005  0.6513
 5149UDC     C256630  13.868  18.819   9.889  0.4130 -0.3714 -0.4218
 5149UDC     C356631  13.934  18.873   9.758 -0.3494  0.2728  0.2572
 5149UDC     C456632  13.964  18.772   9.641  0.3453 -0.6659 -0.3652
 5149UDC     C556633  14.101  18.782   9.568 -0.6737 -0.1727 -0.0343
 5149UDC     C656634  14.112  18.662   9.475 -0.0991 -0.3855 -0.4186
 5149UDC     C756635  14.014  18.662   9.360 -0.4111  0.1202  0.3745
 5149UDC     C856636  14.058  18.786   9.281  0.5552 -0.8045 -1.4440
 5149UDC     C956637  13.978  18.847   9.168 -0.2062 -0.2888  0.0750
 5149UDC    C1056638  14.042  18.973   9.105 -0.0944 -0.1571 -0.5027
 5149UDC    C1156639  13.957  19.048   9.002  0.1892  0.8797  0.0113
 5150UDC     C156640  12.964   9.000  17.160 -0.2388  0.1686  0.6298
 5150UDC     C256641  13.009   8.867  17.230  0.2475  0.2707 -0.3865
 5150UDC     C356642  13.164   8.845  17.218 -0.1927 -0.4541  0.5070
 5150UDC     C456643  13.204   8.733  17.320  0.3967 -0.1489 -0.5553
 5150UDC     C556644  13.242   8.801  17.450 -0.3245  0.1541  0.0859
 5150UDC     C656645  13.269   8.706  17.568 -0.3847 -0.9994 -0.8834
 5150UDC     C756646  13.336   8.784  17.679  1.0432  0.3234  0.1403
 5150UDC     C856647  13.466   8.847  17.647  0.2887  0.4115 -0.2568
 5150UDC     C956648  13.519   8.966  17.739 -0.1735  0.4686 -0.2853
 5150UDC    C1056649  13.500   8.957  17.896  0.3141 -1.0803 -0.3593
 5150UDC    C1156650  13.577   9.065  17.976  0.4591  0.4853 -0.0906
 5151UDC     C156651  16.580  19.093  10.636 -1.0582 -0.1417  1.4967
 5151UDC     C256652  16.445  19.086  10.695 -0.0803  0.4661  0.0611
 5151UDC     C356653  16.347  19.098  10.578  0.3941 -0.5805  0.3752
 5151UDC     C456654  16.203  19.071  10.611 -0.3542 -0.2891 -0.4449
 5151UDC     C556655  16.121  19.066  10.480 -0.0122  0.9006  0.1089
 5151UDC     C656656  15.974  19.023  10.508  0.5843  0.1802  0.2299
 5151UDC     C756657  15.900  19.125  10.587  0.2213  1.0222  0.1471
 5151UDC     C856658  15.898  19.272  10.546  0.2496 -0.0949  0.4187
 5151UDC     C956659  15.758  19.328  10.507 -0.9498 -0.1340 -0.9661
 5151UDC    C1056660  15.640  19.285  10.601 -0.8472  0.8408 -0.1981
 5151UDC    C1156661  15.511  19.339  10.542  0.1967  0.0985  0.4189
 5152UDC     C156662  12.525   7.381   7.137 -0.5925  0.1167 -0.0573
 5152UDC     C256663  12.647   7.303   7.089 -0.5008  0.3790  0.2354
 5152UDC     C356664  12.660   7.257   6.947 -0.2828 -0.2165  0.0128
 5152UDC     C456665  12.686   7.371   6.848  0.8470  0.5091  0.5457
 5152UDC     C556666  12.772   7.339   6.722  0.4544  0.5556  0.3039
 5152UDC     C656667  12.771   7.451   6.620  0.3878  0.2174 -0.6309
 5152UDC     C756668  12.831   7.588   6.660 -0.0184  0.5391  0.7125
 5152UDC     C856669  12.986   7.564   6.660 -0.3380 -1.6786  0.5372
 5152UDC     C956670  13.052   7.540   6.521 -1.1792 -0.2555  0.2796
 5152UDC    C1056671  13.028   7.616   6.394  1.8384  0.0435 -0.1663
 5152UDC    C1156672  13.096   7.751   6.383 -0.0421 -0.9766  0.1815
 5153UDC     C156673  11.145  15.958   9.969  0.7517 -0.0470  0.3841
 5153UDC     C256674  11.220  15.829   9.917  0.8493  0.0966 -0.5992
 5153UDC     C356675  11.231  15.811   9.767 -0.7343  0.7199  0.0572
 5153UDC     C456676  11.257  15.659   9.742  0.1369  0.4332 -0.9002
 5153UDC     C556677  11.272  15.602   9.596  0.3354  0.3313  0.1694
 5153UDC     C656678  11.362  15.472   9.580  0.1448 -0.1459  0.7315
 5153UDC     C756679  11.511  15.499   9.564 -1.2823  0.5549  1.0879
 5153UDC     C856680  11.592  15.386   9.493 -0.5145 -0.9649  0.4313
 5153UDC     C956681  11.684  15.426   9.377 -0.7540 -1.2819 -1.1389
 5153UDC    C1056682  11.615  15.488   9.260 -0.1559 -0.3928 -0.0477
 5153UDC    C1156683  11.688  15.471   9.130 -0.0318  0.6948 -0.2981
 5154UDC     C156684   6.547  18.456   7.244 -0.5372  0.5466  0.1039
 5154UDC     C256685   6.534  18.500   7.098 -0.9936  0.0099 -0.3180
 5154UDC     C356686   6.629  18.613   7.041  0.0719 -0.3880  0.3366
 5154UDC     C456687   6.555  18.659   6.918  0.7546  0.0542  0.6310
 5154UDC     C556688   6.614  18.771   6.827  0.3223  0.5943  0.0574
 5154UDC     C656689   6.529  18.823   6.711  0.3479 -0.7175  0.0099
 5154UDC     C756690   6.553  18.952   6.640 -0.4592 -0.1079 -0.2127
 5154UDC     C856691   6.470  18.979   6.511  0.0091 -0.7137  0.6877
 5154UDC     C956692   6.558  19.007   6.385 -0.7491 -0.1060 -0.0952
 5154UDC    C1056693   6.502  19.043   6.248  0.7663  0.6501  0.6867
 5154UDC    C1156694   6.597  19.081   6.137 -0.4669 -0.1203  0.3709
 5155UDC     C156695  11.937  11.805   8.345 -0.4769 -0.4017 -0.9164
 5155UDC     C256696  11.971  11.838   8.198 -0.4216  0.6483  1.0805
 5155UDC     C356697  11.898  11.761   8.080  0.3279 -0.5744 -0.7000
 5155UDC     C456698  11.747  11.799   8.090  0.8799  0.2679  0.1829
 5155UDC     C556699  11.643  11.712   8.004 -0.9414  0.6318  0.0125
 5155UDC     C656700  11.501  11.728   8.058 -0.0717 -0.3978 -0.5377
 5155UDC     C756701  11.455  11.623   8.161 -1.0164  0.1265  0.7601
 5155UDC     C856702  11.396  11.482   8.121 -0.6621  1.1489  0.6839
 5155UDC     C956703  11.481  11.371   8.190  0.1743  0.0733  1.0319
 5155UDC    C1056704  11.430  11.224   8.175 -0.2420  0.4807 -0.8936
 5155UDC    C1156705  11.299  11.204   8.253 -0.5845 -0.0008 -0.4321
 5156UDC     C156706   5.599  16.806   0.358  0.8674 -0.3103 -0.6480
 5156UDC     C256707   5.582  16.658   0.350 -0.3524  0.5087  0.4410
 5156UDC     C356708   5.444  16.641   0.284 -0.4079  0.9027 -1.0557
 5156UDC     C456709   5.397  16.494   0.301  0.0316  0.4085  0.2410
 5156UDC     C556710   5.271  16.466   0.217 -0.2052 -0.2131  0.3417
 5156UDC     C656711   5.282  16.505   0.076  0.5735  0.1141  0.2410
 5156UDC     C756712   5.163  16.460  -0.011  1.0966  1.3311 -0.1811
 5156UDC     C856713   5.143  16.310  -0.052 -0.7820  0.2859 -0.2971
 5156UDC     C956714   5.157  16.309  -0.200  1.0072  0.5534 -0.6603
 5156UDC    C1056715   5.156  16.178  -0.274  0.5027  0.0141 -1.5252
 5156UDC    C1156716   5.174  16.202  -0.425 -0.1183 -1.1237 -0.1921
 5157UDC     C156717  13.310  12.262   3.998 -0.2879 -1.0212 -0.6840
 5157UDC     C256718  13.366  12.132   3.942  0.1500  0.1013 -0.4270
 5157UDC     C356719  13.251  12.022   3.929 -0.0989  0.1578  0.2396
 5157UDC     C456720  13.293  11.890   3.858 -0.4736  0.6704 -0.6489
 5157UDC     C556721  13.442  11.881   3.849  0.0490 -0.6421 -0.7829
 5157UDC     C656722  13.495  11.757   3.931  0.2804 -1.0512 -0.0782
 5157UDC     C756723  13.649  11.732   3.955  0.2669  0.5618 -0.0523
 5157UDC     C856724  13.681  11.600   4.022  0.4992  1.1188  1.2564
 5157UDC     C956725  13.637  11.580   4.162 -0.5074  0.3342  0.0998
 5157UDC    C1056726  13.704  11.471   4.248  0.0221  0.4421  0.0764
 5157UDC    C1156727  13.627  11.458   4.382  0.4399 -0.5115 -0.2984
 5158UDC     C156728   3.112   9.115  14.191  1.0621 -0.8894  0.8013
 5158UDC     C256729   3.103   8.986  14.274 -0.5766  0.5421  0.4840
 5158UDC     C356730   3.032   8.995  14.407 -0.3931  0.2599 -1.1987
 5158UDC     C456731   3.055   8.868  14.489 -0.1110  0.9645  0.1031
 5158UDC     C556732   3.013   8.865  14.640  0.2117 -0.4899  0.4690
 5158UDC     C656733   3.088   8.984  14.698  0.4058  0.2136  0.6305
 5158UDC     C756734   3.067   9.006  14.853 -0.0744  0.4267  0.6234
 5158UDC     C856735   3.111   9.135  14.925 -0.1879 -0.2353 -0.6308
 5158UDC     C956736   3.096   9.121  15.074  0.7053 -0.0440  1.0019
 5158UDC    C1056737   3.021   8.984  15.110 -0.2547 -0.0773 -0.2821
 5158UDC    C1156738   3.022   8.950  15.258 -0.5573  0.7136  0.7776
 5159UDC     C156739  11.007   5.213   1.178 -1.1285 -0.1124  0.2873
 5159UDC     C256740  10.935   5.210   1.320  0.4575  0.1635  1.0853
 5159UDC     C356741  10.982   5.099   1.407  1.0508  0.8083 -1.2444
 5159UDC     C456742  10.959   5.111   1.565 -0.3509  0.1480  0.6609
 5159UDC     C556743  10.833   5.187   1.588  0.7623  0.3863 -0.4222
 5159UDC     C656744  10.715   5.090   1.630 -0.0616  1.0401  0.2232
 5159UDC     C756745  10.739   5.008   1.762  0.1008 -0.5596 -0.5301
 5159UDC     C856746  10.613   4.995   1.850  0.2111 -1.5033  0.0631
 5159UDC     C956747  10.610   4.897   1.973 -0.6244 -0.5563  0.5532
 5159UDC    C1056748  10.471   4.840   1.995  0.8360 -0.0354 -0.3753
 5159UDC    C1156749  10.384   4.832   1.860 -0.5918 -1.1310 -0.2863
 5160UDC     C156750  14.206   4.417  12.973  0.1875 -1.0791 -0.6238
 5160UDC     C256751  14.132   4.507  13.089 -0.0522  0.3239 -0.4136
 5160UDC     C356752  14.199   4.644  13.132 -0.3905 -0.4076  0.2614
 5160UDC     C456753  14.344   4.648  13.172 -0.4004  0.4378 -0.1790
 5160UDC     C556754  14.403   4.789  13.175 -0.2516  1.0324 -0.5142
 5160UDC     C656755  14.428   4.821  13.321  1.0220 -0.7219 -0.3861
 5160UDC     C756756  14.363   4.957  13.368 -0.4363 -0.4526  1.2849
 5160UDC     C856757  14.422   4.998  13.505 -0.4067 -0.3807 -0.7875
 5160UDC     C956758  14.357   5.129  13.545 -0.0651  0.0482 -0.4741
 5160UDC    C1056759  14.367   5.230  13.430  0.0777  0.0379  0.5125
 5160UDC    C1156760  14.287   5.362  13.441  0.3997 -0.1328  0.4378
 5161UDC     C156761  16.485   6.873   4.764  0.2427  0.2536 -0.2482
 5161UDC     C256762  16.364   6.800   4.701  0.2430  0.0052  0.0567
 5161UDC     C356763  16.249   6.731   4.782 -0.4282 -0.3979  0.1187
 5161UDC     C456764  16.184   6.843   4.864 -0.9152 -0.2132 -0.0573
 5161UDC     C556765  16.086   6.791   4.971  1.7350  0.3160 -0.4171
 5161UDC     C656766  16.033   6.907   5.058  0.0343  0.3771 -0.4916
 5161UDC     C756767  15.925   6.855   5.154 -0.6604  0.6943 -0.5423
 5161UDC     C856768  15.945   6.710   5.202 -0.2423 -1.1823  0.7047
 5161UDC     C956769  15.954   6.709   5.356  0.3507 -0.1707 -0.3914
 5161UDC    C1056770  15.816   6.711   5.420  0.4549 -0.6229 -0.4443
 5161UDC    C1156771  15.835   6.645   5.560 -0.3491  0.6093  0.3746
 5162UDC     C156772   2.027  12.667  14.105 -0.0318  0.0059  1.0041
 5162UDC     C256773   2.004  12.738  13.965 -0.1845  0.1242 -0.4615
 5162UDC     C356774   1.917  12.867  13.990 -1.5401  0.0948  0.3506
 5162UDC     C456775   1.959  12.988  14.074  1.3186  1.2306  0.1876
 5162UDC     C556776   1.847  13.092  14.109 -0.3329  0.1840  0.4194
 5162UDC     C656777   1.897  13.230  14.153  0.3437  1.2824 -0.0663
 5162UDC     C756778   1.783  13.331  14.109 -0.6328 -0.2653 -0.6085
 5162UDC     C856779   1.774  13.367  13.953 -0.9422  0.2831 -0.3811
 5162UDC     C956780   1.634  13.363  13.888 -0.2345 -1.3421 -1.0931
 5162UDC    C1056781   1.542  13.480  13.913  0.2471 -0.1577  0.6186
 5162UDC    C1156782   1.392  13.452  13.881  0.1932  0.8830 -0.3522
 5163UDC     C156783   7.668  17.679   3.559  0.0863  0.2672  0.8122
 5163UDC     C256784   7.772  17.724   3.662  0.7019 -0.1984 -0.3657
 5163UDC     C356785   7.897  17.788   3.593 -0.4946  0.3245  0.3168
 5163UDC     C456786   7.969  17.677   3.517 -0.5923  0.0796 -0.6154
 5163UDC     C556787   8.027  17.563   3.612 -0.4463 -0.0511  0.6811
 5163UDC     C656788   8.078  17.439   3.529  0.1501 -1.1606  0.3091
 5163UDC     C756789   8.133  17.332   3.633  0.5157  0.8157 -0.1931
 5163UDC     C856790   8.283  17.305   3.616  0.4825 -0.0736 -0.0353
 5163UDC     C956791   8.365  17.200   3.686 -0.7019  0.4744 -0.4157
 5163UDC    C1056792   8.516  17.212   3.676 -1.8233 -0.8067 -1.8105
 5163UDC    C1156793   8.543  17.178   3.530 -1.1325 -0.3498 -0.2003
 5164UDC     C156794  18.435   8.754  11.570  0.5499 -0.0560 -0.2284
 5164UDC     C256795  18.418   8.669  11.706  0.4298 -0.2422  0.3311
 5164UDC     C356796  18.452   8.728  11.846 -0.1094  0.7076 -0.0709
 5164UDC     C456797  18.354   8.682  11.955  0.4871 -0.1872 -0.0726
 5164UDC     C556798  18.380   8.747  12.087  0.1882 -0.2679  0.1621
 5164UDC     C656799  18.446   8.662  12.194 -0.6468  0.6570  0.2724
 5164UDC     C756800  18.591   8.620  12.162 -0.0162 -0.5512  0.3530
 5164UDC     C856801  18.687   8.734  12.178  0.4579  1.0148  0.1440
 5164UDC     C956802  18.822   8.675  12.158  0.1660 -0.0498 -0.3658
 5164UDC    C1056803  18.938   8.753  12.207 -0.9813 -0.4514  0.3414
 5164UDC    C1156804  19.073   8.693  12.265  0.8040  0.0897  1.0395
 5165UDC     C156805   7.499  17.696   0.426  0.3702 -0.3325 -0.3245
 5165UDC     C256806   7.512  17.819   0.518 -0.1537  0.3672  0.1295
 5165UDC     C356807   7.610  17.828   0.628 -0.8536 -0.9787 -0.1764
 5165UDC     C456808   7.754  17.852   0.573 -0.5308  0.2692  0.7291
 5165UDC     C556809   7.881  17.820   0.659 -0.0302 -0.1535 -0.2013
 5165UDC     C656810   7.883  17.920   0.770  0.4887  0.3913 -0.0259
 5165UDC     C756811   7.987  17.908   0.880 -0.2770  0.7112 -0.6733
 5165UDC     C856812   8.142  17.918   0.853 -0.0411  0.1472 -1.1226
 5165UDC     C956813   8.216  17.890   0.988  0.3182  0.3941  0.9397
 5165UDC    C1056814   8.288  17.757   0.998  0.0247  0.7027  0.7171
 5165UDC    C1156815   8.408  17.747   0.904 -0.0441 -0.8392  0.3046
 5166UDC     C156816   3.141  11.613  12.437 -1.5397 -0.4106  0.1140
 5166UDC     C256817   3.054  11.530  12.340  1.0679 -0.5766  0.6921
 5166UDC     C356818   3.131  11.432  12.251 -0.0875 -0.7208 -0.6739
 5166UDC     C456819   3.244  11.499  12.173  0.1503  0.0207  0.0850
 5166UDC     C556820   3.281  11.432  12.038  0.1624 -1.3273 -0.9983
 5166UDC     C656821   3.145  11.396  11.961  0.0157  0.0010 -1.0400
 5166UDC     C756822   3.187  11.354  11.820 -0.4442  0.8162  0.2137
 5166UDC     C856823   3.249  11.469  11.740 -0.3433  1.7629  0.1188
 5166UDC     C956824   3.321  11.421  11.613 -0.2511 -0.3732 -0.7170
 5166UDC    C1056825   3.383  11.542  11.542  0.1468 -0.1632  0.6885
 5166UDC    C1156826   3.438  11.492  11.405  0.2169 -0.9796  0.1120
 5167UDC     C156827  11.767   5.881  16.366  0.2865 -1.2541 -0.2318
 5167UDC     C256828  11.704   5.820  16.250 -0.3530 -0.5567 -0.0807
 5167UDC     C356829  11.780   5.719  16.164 -0.1996 -1.0256 -0.7390
 5167UDC     C456830  11.775   5.572  16.199  0.2264 -0.5826  0.1649
 5167UDC     C556831  11.657   5.502  16.132 -0.0663 -0.4119  0.2028
 5167UDC     C656832  11.699   5.467  15.993 -0.5749 -0.0659  1.1584
 5167UDC     C756833  11.818   5.371  15.996  0.3916 -0.6984 -0.8983
 5167UDC     C856834  11.906   5.347  15.870  1.2695  0.6719 -0.2562
 5167UDC     C956835  11.983   5.451  15.796  0.5340 -0.0184  0.8100
 5167UDC    C1056836  12.127   5.479  15.844  0.4471  0.2835 -0.0853
 5167UDC    C1156837  12.214   5.363  15.810 -0.7901  0.8469  0.2004
 5168UDC     C156838   5.091   0.435  16.752  0.8445 -0.2125  0.6732
 5168UDC     C256839   5.155   0.317  16.680  0.0869  0.3598 -0.3004
 5168UDC     C356840   5.055   0.203  16.640 -0.4112 -0.2278  1.2175
 5168UDC     C456841   5.140   0.082  16.598  0.8557 -1.1079 -1.0323
 5168UDC     C556842   5.058  -0.054  16.579 -0.6032  0.0150 -0.5481
 5168UDC     C656843   4.956  -0.051  16.467 -0.3574 -0.1137  1.1019
 5168UDC     C756844   5.027  -0.034  16.329  0.3912  0.4245 -0.9507
 5168UDC     C856845   4.943  -0.041  16.201 -0.6623 -0.4582  0.6591
 5168UDC     C956846   4.920   0.090  16.111 -0.9549  0.9152 -0.6070
 5168UDC    C1056847   5.064   0.117  16.070 -1.0917  0.1601 -0.1704
 5168UDC    C1156848   5.068   0.263  16.031  0.1808 -0.3375 -0.7758
 5169UDC     C156849  14.908   3.055   5.645  0.0181  0.0048  0.5900
 5169UDC     C256850  14.791   3.059   5.754  0.3480 -0.7172  0.9261
 5169UDC     C356851  14.705   3.182   5.726  1.4993  1.1543 -0.4448
 5169UDC     C456852  14.572   3.182   5.806  0.4459 -0.6415 -0.1296
 5169UDC     C556853  14.582   3.168   5.955 -0.5616  0.3290 -0.4292
 5169UDC     C656854  14.554   3.305   6.030  0.5503  0.4061  0.6376
 5169UDC     C756855  14.404   3.359   6.011  0.1027  0.3927  0.1101
 5169UDC     C856856  14.294   3.281   6.084  0.1793  1.3929 -0.4309
 5169UDC     C956857  14.143   3.327   6.078 -0.8257  0.0704  0.0360
 5169UDC    C1056858  14.098   3.462   6.128 -0.3274 -0.0606  0.3946
 5169UDC    C1156859  14.140   3.473   6.268  0.4357 -0.7749 -0.6910
 5170UDC     C156860  19.595  11.215  10.750 -0.2691 -0.3284 -0.6014
 5170UDC     C256861  19.700  11.329  10.787 -0.6365  0.5722  0.2454
 5170UDC     C356862  19.843  11.272  10.757  0.1432  0.1717 -0.5404
 5170UDC     C456863  19.962  11.361  10.771  0.2059  0.7802  0.9882
 5170UDC     C556864  20.090  11.274  10.744 -0.1223 -0.2826  0.3820
 5170UDC     C656865  20.090  11.144  10.824 -0.2840  0.8503  0.3289
 5170UDC     C756866  20.212  11.055  10.816 -1.7058  1.1575  0.4256
 5170UDC     C856867  20.256  10.961  10.932 -1.1261 -0.2682  0.0614
 5170UDC     C956868  20.230  10.808  10.897 -0.9828 -1.4376  0.8253
 5170UDC    C1056869  20.080  10.767  10.888  0.2967 -0.6182  0.7984
 5170UDC    C1156870  20.051  10.653  10.988  0.1769 -0.2938  0.2399
 5171UDC     C156871   6.221   6.161  19.845  1.1777  0.2692  0.4872
 5171UDC     C256872   6.298   6.142  19.716 -1.2696 -0.2837 -0.3250
 5171UDC     C356873   6.345   6.281  19.671 -0.1200  0.7937  0.6734
 5171UDC     C456874   6.387   6.289  19.515  0.6604 -0.2648  0.0648
 5171UDC     C556875   6.535   6.329  19.489  0.8364 -0.7148 -0.5272
 5171UDC     C656876   6.579   6.465  19.556 -0.3562 -0.4263 -0.1233
 5171UDC     C756877   6.506   6.593  19.516 -0.5002 -0.6074  1.6792
 5171UDC     C856878   6.508   6.663  19.645 -0.6556  0.4895  0.1146
 5171UDC     C956879   6.519   6.819  19.624  0.0880  0.5516  0.2437
 5171UDC    C1056880   6.649   6.872  19.577 -0.3766  0.0272  0.2634
 5171UDC    C1156881   6.669   7.022  19.563  1.0052  1.3394  1.3557
 5172UDC     C156882   6.551  13.939  15.826  0.1270 -0.0063  0.9044
 5172UDC     C256883   6.473  13.988  15.698 -0.6500 -1.3911 -0.8175
 5172UDC     C356884   6.538  14.096  15.619 -0.7287 -0.4400  1.5879
 5172UDC     C456885   6.466  14.126  15.479  0.4822  0.7627  0.7495
 5172UDC     C556886   6.523  14.252  15.406 -0.1279 -0.4592  0.9360
 5172UDC     C656887   6.522  14.266  15.247  0.2607 -0.1593  0.3043
 5172UDC     C756888   6.566  14.407  15.216 -0.9338  0.2368 -0.4130
 5172UDC     C856889   6.520  14.465  15.082 -0.2273  0.4839  0.4146
 5172UDC     C956890   6.620  14.559  15.014  0.2125  0.9933 -0.0661
 5172UDC    C1056891   6.603  14.554  14.859  0.1787  0.0754 -0.0350
 5172UDC    C1156892   6.473  14.610  14.816  0.2263  0.0525 -0.1449
 5173UDC     C156893   0.201  10.143  15.968  1.3929  0.2291  0.2056
 5173UDC     C256894   0.261  10.012  15.906 -0.4899 -0.7601  1.0852
 5173UDC     C356895   0.276   9.995  15.747  1.0451  0.3152 -0.5176
 5173UDC     C456896   0.279   9.844  15.704  0.1355 -0.2525  1.0300
 5173UDC     C556897   0.137   9.774  15.719 -0.1691 -0.9067 -0.1624
 5173UDC     C656898   0.017   9.861  15.671  0.0533  1.0691  0.3128
 5173UDC     C756899  -0.123   9.810  15.711 -0.6711 -0.6637 -0.0414
 5173UDC     C856900  -0.134   9.669  15.647 -0.3813  0.2865 -0.8343
 5173UDC     C956901  -0.284   9.627  15.615 -0.4898  0.0339 -0.8671
 5173UDC    C1056902  -0.316   9.481  15.633  0.3462  0.5519  0.1579
 5173UDC    C1156903  -0.463   9.445  15.601 -0.0115  0.6574 -0.2826
 5174UDC     C156904   7.086   6.029   0.119  0.3428  0.7116 -0.8588
 5174UDC     C256905   7.211   6.105   0.072  0.0181 -0.8380 -0.2927
 5174UDC     C356906   7.221   6.243   0.134 -0.6978  0.0749 -0.0556
 5174UDC     C456907   7.168   6.259   0.281 -0.3036  0.5922  0.5951
 5174UDC     C556908   7.137   6.401   0.326  0.3620  1.0278 -0.3025
 5174UDC     C656909   7.168   6.508   0.222  0.4780  0.9625 -0.0119
 5174UDC     C756910   7.100   6.644   0.272  0.0706  0.6413  1.4400
 5174UDC     C856911   7.097   6.663   0.423 -0.1630 -0.0378 -0.7472
 5174UDC     C956912   7.043   6.802   0.482 -0.7942 -0.0170 -0.1154
 5174UDC    C1056913   7.118   6.924   0.417 -0.4093 -0.3741  0.1707
 5174UDC    C1156914   7.018   6.986   0.320 -1.0137  0.7878 -0.3286
 5175UDC     C156915   6.023  11.644  12.973  0.5584 -0.2288 -1.7657
 5175UDC     C256916   6.156  11.712  13.023  0.3386 -0.1132  0.8383
 5175UDC     C356917   6.271  11.660  12.933  1.6481  0.4785  0.2063
 5175UDC     C456918   6.370  11.771  12.907  0.9410 -1.0543  1.1663
 5175UDC     C556919   6.326  11.918  12.907  0.2618 -0.0003 -0.6786
 5175UDC     C656920   6.409  12.006  12.818 -0.1258 -0.5901 -0.7585
 5175UDC     C756921   6.347  12.138  12.763  1.6445 -0.3979  0.2136
 5175UDC     C856922   6.449  12.201  12.674 -0.3369  0.4095  0.4153
 5175UDC     C956923   6.448  12.350  12.651  0.0168  0.0748  0.0862
 5175UDC    C1056924   6.505  12.436  12.766 -0.9985 -0.2117  0.6559
 5175UDC    C1156925   6.396  12.481  12.869 -0.0481 -0.3039  0.2921
 5176UDC     C156926  14.225  18.399  10.329  0.6775  0.4812 -0.1066
 5176UDC     C256927  14.311  18.422  10.458  0.0618  0.2829 -0.6421
 5176UDC     C356928  14.430  18.514  10.443 -0.8302 -0.7508 -0.2605
 5176UDC     C456929  14.414  18.657  10.384 -0.2585 -0.9144  0.5031
 5176UDC     C556930  14.536  18.747  10.364  0.0362 -0.2207  0.1181
 5176UDC     C656931  14.581  18.789  10.507 -0.8587  0.1169 -0.0793
 5176UDC     C756932  14.503  18.907  10.566 -0.5836  1.0296 -1.0872
 5176UDC     C856933  14.542  19.037  10.505  0.2874 -0.1971 -0.0275
 5176UDC     C956934  14.497  19.161  10.593  0.1874 -0.0563 -0.2140
 5176UDC    C1056935  14.349  19.150  10.614  0.0795 -0.5657  0.2987
 5176UDC    C1156936  14.272  19.161  10.482 -0.0938 -0.0022  0.8104
 5177UDC     C156937   2.122   0.936   6.424 -0.2936 -0.7720  1.0080
 5177UDC     C256938   2.169   1.070   6.476 -0.3092 -0.0892 -0.1624
 5177UDC     C356939   2.068   1.178   6.515 -0.3663  0.9167 -0.8378
 5177UDC     C456940   2.117   1.295   6.596  0.2783  0.3235 -0.3696
 5177UDC     C556941   2.227   1.362   6.507  0.0241 -0.3759  0.5404
 5177UDC     C656942   2.293   1.492   6.566 -0.0794  0.3782 -0.2548
 5177UDC     C756943   2.412   1.530   6.480  0.8252 -0.3997 -1.4797
 5177UDC     C856944   2.495   1.644   6.541 -0.3155  0.2956 -0.1352
 5177UDC     C956945   2.562   1.629   6.673  0.1306  0.0261  0.0804
 5177UDC    C1056946   2.691   1.548   6.665 -0.5398 -0.1481  0.0977
 5177UDC    C1156947   2.770   1.573   6.535  0.2273 -1.3449 -0.6342
 5178UDC     C156948  17.833   2.945   8.526 -0.1635 -0.9743 -0.0084
 5178UDC     C256949  17.887   2.978   8.666 -0.1295 -0.4567 -0.3123
 5178UDC     C356950  17.785   2.980   8.776 -0.7293 -0.2925 -0.9524
 5178UDC     C456951  17.832   3.025   8.913 -0.0940 -0.0895  0.1808
 5178UDC     C556952  17.884   2.903   8.993 -1.4552  1.3718  0.0866
 5178UDC     C656953  17.795   2.869   9.112 -0.4535 -0.1816  0.1408
 5178UDC     C756954  17.655   2.812   9.089  0.3088  0.6379  0.5855
 5178UDC     C856955  17.564   2.824   9.216  0.6958 -0.7222 -0.2618
 5178UDC     C956956  17.443   2.733   9.215 -0.0746  1.2260 -0.4292
 5178UDC    C1056957  17.465   2.587   9.164  0.0169  1.0393  0.8395
 5178UDC    C1156958  17.383   2.512   9.049 -0.3155 -0.5659 -0.0263
 5179UDC     C156959  11.881   6.344   5.210 -0.1650 -0.1137 -0.9191
 5179UDC     C256960  11.979   6.344   5.094 -0.5715 -0.7008 -0.3931
 5179UDC     C356961  12.049   6.208   5.095  0.2720  0.1813  0.0740
 5179UDC     C456962  12.085   6.165   4.949  0.0081  0.0909 -0.3392
 5179UDC     C556963  11.973   6.185   4.848  0.4172 -0.7270 -0.1397
 5179UDC     C656964  12.017   6.152   4.711  0.7707  0.3553 -0.2608
 5179UDC     C756965  12.124   6.239   4.656 -0.6396 -1.2178  0.2406
 5179UDC     C856966  12.099   6.389   4.681 -1.0793  0.0375 -0.2109
 5179UDC     C956967  12.226   6.474   4.667 -0.0500 -0.0115  0.8317
 5179UDC    C1056968  12.185   6.623   4.662 -0.5474 -0.4738 -0.0685
 5179UDC    C1156969  12.062   6.647   4.752 -0.0847  0.8761  1.4208
 5180UDC     C156970   6.843   0.664   5.458  0.1478  0.0800 -0.4469
 5180UDC     C256971   6.990   0.680   5.414 -0.0224 -0.8979  0.1139
 5180UDC     C356972   7.094   0.680   5.533  0.6388  0.6357  0.4438
 5180UDC     C456973   7.153   0.536   5.547 -0.2814 -1.0392  0.1383
 5180UDC     C556974   7.265   0.533   5.659  0.6996 -0.0607  0.0779
 5180UDC     C656975   7.305   0.385   5.709  0.2551 -1.0852 -0.1578
 5180UDC     C756976   7.437   0.374   5.785  0.1494 -0.8627 -0.5142
 5180UDC     C856977   7.569   0.392   5.710 -0.3286 -0.9530  0.3948
 5180UDC     C956978   7.715   0.378   5.768 -0.5616  0.0527  0.2143
 5180UDC    C1056979   7.806   0.460   5.677  0.6169 -0.1397 -0.0575
 5180UDC    C1156980   7.949   0.439   5.717  0.7112  0.4304  0.1862
 5181UDC     C156981  12.979   0.282   2.840  0.2853  1.3210  0.2386
 5181UDC     C256982  12.893   0.199   2.737 -0.5899  0.6716  0.5068
 5181UDC     C356983  12.960   0.061   2.713  0.2675 -0.2011  0.7105
 5181UDC     C456984  12.904  -0.035   2.821 -1.0016 -0.0313 -0.0303
 5181UDC     C556985  12.957  -0.181   2.816 -0.3016 -0.0356  0.4681
 5181UDC     C656986  12.907  -0.271   2.930 -0.3106  1.0389 -0.7782
 5181UDC     C756987  12.944  -0.223   3.067  0.0172  0.0429  0.3115
 5181UDC     C856988  12.847  -0.285   3.176 -0.0819 -0.0517 -0.9986
 5181UDC     C956989  12.928  -0.386   3.270  0.1615 -0.6358 -0.1851
 5181UDC    C1056990  12.995  -0.494   3.190  0.9790  1.1760 -0.5252
 5181UDC    C1156991  13.027  -0.610   3.288  0.4440 -0.1855  0.6334
 5182UDC     C156992   2.042  17.142  12.227 -0.1547 -0.5554 -0.3129
 5182UDC     C256993   2.073  17.286  12.173 -0.4658 -0.2975 -0.7036
 5182UDC     C356994   2.219  17.324  12.156 -0.4025 -0.4121 -0.6540
 5182UDC     C456995   2.277  17.405  12.036  0.8699  0.0963 -1.2178
 5182UDC     C556996   2.428  17.415  12.030  0.9168 -0.3695  0.1785
 5182UDC     C656997   2.483  17.275  11.994  0.0866  0.0260  0.5844
 5182UDC     C756998   2.449  17.215  11.856  0.3849 -0.1301 -0.3494
 5182UDC     C856999   2.516  17.297  11.740 -0.5723  0.2851 -0.9754
 5182UDC     C957000   2.424  17.374  11.646 -0.4938  0.2842  1.4793
 5182UDC    C1057001   2.436  17.531  11.646 -0.5101 -0.1379  0.1055
 5182UDC    C1157002   2.579  17.596  11.647  0.4026 -0.3648  0.4933
 5183UDC     C157003  16.551  17.810  14.249 -1.0368 -0.2154  0.6974
 5183UDC     C257004  16.534  17.904  14.371 -0.1100  0.5597  0.1532
 5183UDC     C357005  16.386  17.923  14.395  0.2795 -0.1700 -0.1638
 5183UDC     C457006  16.320  18.005  14.283 -0.2689 -0.5328  0.0247
 5183UDC     C557007  16.202  17.954  14.199 -0.6595  0.8420  0.9106
 5183UDC     C657008  16.098  18.073  14.173 -1.0849  1.2452  0.2882
 5183UDC     C757009  15.976  18.016  14.103 -0.5932 -0.0631 -0.1798
 5183UDC     C857010  15.938  18.112  13.985  0.0435 -0.0569  0.4817
 5183UDC     C957011  16.045  18.107  13.877  0.4369 -0.1829  0.1142
 5183UDC    C1057012  15.979  18.161  13.748  0.6532 -0.8699 -1.1895
 5183UDC    C1157013  15.880  18.064  13.693 -0.1342  0.4257 -0.5397
 5184UDC     C157014  12.029  14.014   0.312  0.3856  0.4831  0.3793
 5184UDC     C257015  12.177  13.995   0.265  1.0489 -1.0274  0.1924
 5184UDC     C357016  12.215  14.107   0.166 -0.3222  0.3686 -0.1434
 5184UDC     C457017  12.327  14.075   0.064  0.6413 -0.3570 -0.0419
 5184UDC     C557018  12.346  14.211  -0.008 -0.9231  0.0917 -0.3005
 5184UDC     C657019  12.229  14.297  -0.040  0.2649 -0.7273  0.5443
 5184UDC     C757020  12.290  14.398  -0.145  0.6803  0.1680 -1.2126
 5184UDC     C857021  12.179  14.507  -0.171  0.5737  0.9180 -0.2844
 5184UDC     C957022  12.105  14.557  -0.047  0.0586 -0.0255  0.7635
 5184UDC    C1057023  12.180  14.675   0.006  0.7316 -0.0050 -1.1513
 5184UDC    C1157024  12.127  14.769   0.117 -0.3723  0.1162  0.4246
 5185UDC     C157025   8.364   6.809  18.556 -0.2747 -0.1742  0.8214
 5185UDC     C257026   8.262   6.837  18.440 -0.6923 -0.7545 -0.0175
 5185UDC     C357027   8.279   6.982  18.393  0.8561  0.1493  0.7710
 5185UDC     C457028   8.144   7.060  18.391 -0.0624  0.2023 -0.1903
 5185UDC     C557029   8.050   6.986  18.295  0.0507  0.7330 -0.8706
 5185UDC     C657030   7.903   7.030  18.270 -0.0101  0.3356  0.0851
 5185UDC     C757031   7.790   6.942  18.339  0.0587 -0.1378  0.1234
 5185UDC     C857032   7.798   6.915  18.485 -0.7100  0.0077 -0.5421
 5185UDC     C957033   7.698   6.817  18.543  0.8468 -0.6327 -0.9633
 5185UDC    C1057034   7.735   6.756  18.681 -0.1400 -0.1499 -0.3536
 5185UDC    C1157035   7.793   6.863  18.775  0.9808  0.2515  0.4085
 5186UDC     C157036  10.997   7.498   1.483 -0.9867 -0.0819  0.1392
 5186UDC     C257037  10.863   7.560   1.433 -0.0528 -0.1197  0.3670
 5186UDC     C357038  10.883   7.609   1.296  0.4459 -0.8064  0.3191
 5186UDC     C457039  10.791   7.724   1.240  0.1479  0.2955 -0.6816
 5186UDC     C557040  10.804   7.834   1.352  0.5235  0.7264  0.0982
 5186UDC     C657041  10.694   7.940   1.353  0.9786  0.3905 -0.4358
 5186UDC     C757042  10.719   8.049   1.254  0.0706 -0.2100 -1.1010
 5186UDC     C857043  10.702   8.192   1.313 -0.2739  0.7854 -0.4860
 5186UDC     C957044  10.756   8.307   1.227 -0.3059 -1.6481  0.2053
 5186UDC    C1057045  10.764   8.452   1.280 -0.0917  0.4150 -0.7678
 5186UDC    C1157046  10.670   8.469   1.398 -0.4477  0.0014  0.7567
 5187UDC     C157047   2.882  12.703  16.607 -0.4697  0.2810  0.0622
 5187UDC     C257048   2.989  12.761  16.528  0.3275 -1.5403 -0.0873
 5187UDC     C357049   3.083  12.648  16.474  0.8824  0.7869  0.8042
 5187UDC     C457050   3.201  12.612  16.562 -0.5502 -0.8208 -0.2039
 5187UDC     C557051   3.321  12.713  16.566 -0.3198 -0.0508 -0.9539
 5187UDC     C657052   3.399  12.742  16.432  0.7151 -0.9480 -1.1696
 5187UDC     C757053   3.464  12.621  16.373  0.6005 -0.5396  1.1292
 5187UDC     C857054   3.577  12.672  16.276  0.3451 -0.1587  0.2939
 5187UDC     C957055   3.633  12.594  16.162  0.3485  0.4122  0.8986
 5187UDC    C1057056   3.783  12.603  16.134 -1.1260 -0.0757 -0.2724
 5187UDC    C1157057   3.838  12.462  16.081 -0.0211 -0.4650 -0.4956
 5188UDC     C157058   5.639   6.860   6.779  1.6315  0.3008 -0.0566
 5188UDC     C257059   5.558   6.740   6.833 -0.9957  0.0526 -0.2308
 5188UDC     C357060   5.438   6.778   6.924 -0.6902 -0.7073 -0.1850
 5188UDC     C457061   5.413   6.692   7.041 -0.2353 -0.9176 -0.3051
 5188UDC     C557062   5.367   6.776   7.161  0.4960 -0.1095  0.5388
 5188UDC     C657063   5.498   6.846   7.206  0.0240  0.3193 -0.3061
 5188UDC     C757064   5.502   6.873   7.361 -0.1953  0.7918 -0.0975
 5188UDC     C857065   5.632   6.938   7.412  0.2144 -0.1736 -0.0301
 5188UDC     C957066   5.635   6.938   7.562 -0.2717  0.2178 -0.3720
 5188UDC    C1057067   5.771   6.972   7.622 -0.3962  0.5323 -0.1291
 5188UDC    C1157068   5.758   7.004   7.775 -1.6469 -0.7318  0.2032
 5189UDC     C157069   1.017   1.495   1.335  0.6853 -0.0736  0.4601
 5189UDC     C257070   0.908   1.563   1.422 -0.6573 -0.0695 -0.7589
 5189UDC     C357071   0.922   1.714   1.400  0.3335 -0.0372  0.3404
 5189UDC     C457072   0.794   1.797   1.421  0.1312 -0.0041 -0.3934
 5189UDC     C557073   0.778   1.909   1.315  0.6437 -0.6304  0.8469
 5189UDC     C657074   0.661   1.896   1.226 -0.0513 -0.4390  0.8060
 5189UDC     C757075   0.544   1.826   1.292  0.1023  0.6643 -0.1754
 5189UDC     C857076   0.408   1.861   1.236 -0.3709  0.5165  0.6017
 5189UDC     C957077   0.287   1.783   1.292 -1.2861 -0.1994 -0.5221
 5189UDC    C1057078   0.163   1.840   1.220 -0.0184  0.6897  0.1347
 5189UDC    C1157079   0.207   1.838   1.070 -0.0170 -0.4633  1.6192
 5190UDC     C157080  13.126   1.666   3.320  1.2686  0.3362  0.3923
 5190UDC     C257081  13.201   1.556   3.259 -0.6326  0.7118  0.9941
 5190UDC     C357082  13.322   1.605   3.166  0.4577  0.5980  0.5647
 5190UDC     C457083  13.312   1.516   3.036  0.3784  0.2187  0.3025
 5190UDC     C557084  13.274   1.598   2.913 -0.5829  0.0254 -0.1381
 5190UDC     C657085  13.361   1.721   2.885  0.1841  0.6092 -0.0600
 5190UDC     C757086  13.311   1.761   2.741 -0.1317 -1.0240 -0.4253
 5190UDC     C857087  13.156   1.772   2.727  0.5052 -0.3241  0.2034
 5190UDC     C957088  13.098   1.778   2.585  0.4239 -0.5295 -0.3668
 5190UDC    C1057089  12.944   1.789   2.572 -0.1683 -0.2615 -0.4721
 5190UDC    C1157090  12.896   1.824   2.422  0.0043  0.6859 -0.3906
 5191UDC     C157091  14.806  17.341   6.193  0.6383 -0.4715 -0.1879
 5191UDC     C257092  14.741  17.409   6.316  0.3222  0.3840 -0.2926
 5191UDC     C357093  14.620  17.491   6.285 -0.0652  0.4732 -0.2899
 5191UDC     C457094  14.501  17.414   6.245  0.5654  0.0875 -0.8202
 5191UDC     C557095  14.396  17.505   6.191 -0.7381 -0.3350  0.7923
 5191UDC     C657096  14.316  17.589   6.295 -0.1777 -0.8841  0.3586
 5191UDC     C757097  14.183  17.516   6.309  0.2662 -1.1746 -0.3540
 5191UDC     C857098  14.093  17.535   6.182 -0.6931 -0.2332  0.0102
 5191UDC     C957099  13.954  17.478   6.193 -0.4463 -1.3000  0.6440
 5191UDC    C1057100  13.857  17.542   6.298 -0.7435 -0.3155  0.1374
 5191UDC    C1157101  13.742  17.457   6.332  0.7772  0.1397  0.1032
 5192UDC     C157102  11.249  12.683  17.568 -1.5923  0.9707 -0.4285
 5192UDC     C257103  11.196  12.663  17.429  0.2438  0.0619  0.3972
 5192UDC     C357104  11.107  12.544  17.404 -0.5225  0.2289  0.6269
 5192UDC     C457105  11.153  12.444  17.293  0.3902  0.2748 -0.0331
 5192UDC     C557106  11.296  12.387  17.267 -0.7665 -0.9389  0.0657
 5192UDC     C657107  11.316  12.322  17.128 -0.4954 -0.0638 -1.2825
 5192UDC     C757108  11.456  12.265  17.123  0.2142  0.9133  0.1752
 5192UDC     C857109  11.567  12.367  17.126  0.6398 -0.5227  0.8647
 5192UDC     C957110  11.556  12.509  17.064 -0.5152  0.5370 -0.0804
 5192UDC    C1057111  11.615  12.622  17.152 -0.6807 -0.1167 -0.2266
 5192UDC    C1157112  11.572  12.629  17.297 -0.4479 -0.9932  0.0943
 5193UDC     C157113   3.871  17.998  11.454 -0.0640 -0.2879 -0.1424
 5193UDC     C257114   3.880  18.150  11.478 -0.7025  0.8882  0.4658
 5193UDC     C357115   3.786  18.180  11.587  0.4312  0.0270 -0.9668
 5193UDC     C457116   3.702  18.057  11.640  0.4768 -0.2054  0.7587
 5193UDC     C557117   3.619  18.091  11.760 -1.0582 -0.1931 -1.7387
 5193UDC     C657118   3.514  17.988  11.790  0.5279  0.1026 -0.3841
 5193UDC     C757119   3.409  17.997  11.685  0.3009 -0.5793 -0.0881
 5193UDC     C857120   3.322  18.118  11.688  0.6611  0.6149 -0.8429
 5193UDC     C957121   3.199  18.087  11.606 -0.1910  0.1754  0.2446
 5193UDC    C1057122   3.085  18.194  11.592  0.3294 -0.0922  1.1097
 5193UDC    C1157123   2.977  18.161  11.491 -0.3446  0.3645  0.2988
 5194UDC     C157124  13.746   8.580  10.462  0.4210  1.2972 -1.4807
 5194UDC     C257125  13.621   8.540  10.546 -0.0561  1.1591 -0.6653
 5194UDC     C357126  13.508   8.645  10.525 -0.9442  0.9091  0.1156
 5194UDC     C457127  13.482   8.659  10.381 -0.1007 -0.6816 -0.0773
 5194UDC     C557128  13.351   8.742  10.361 -0.1322 -0.0589  0.7726
 5194UDC     C657129  13.231   8.675  10.421 -0.1436 -0.5278 -0.6549
 5194UDC     C757130  13.097   8.709  10.357 -0.3966 -1.1166 -0.0024
 5194UDC     C857131  13.078   8.635  10.221 -0.7058  1.0228  0.2125
 5194UDC     C957132  12.932   8.636  10.164 -0.9202  0.0160  0.3451
 5194UDC    C1057133  12.927   8.546  10.033  0.0828 -0.2052 -0.8587
 5194UDC    C1157134  12.793   8.560   9.968 -0.6596  0.2208  0.8610
 5195UDC     C157135  16.823  19.362   0.882  1.0945  0.4606  0.0416
 5195UDC     C257136  16.799  19.512   0.839  0.1474  0.7439 -0.0305
 5195UDC     C357137  16.913  19.599   0.894 -0.4107 -1.3794 -0.7326
 5195UDC     C457138  16.922  19.747   0.841 -0.0628  0.0385  0.6406
 5195UDC     C557139  16.795  19.826   0.883  0.3574 -0.1710  1.2201
 5195UDC     C657140  16.818  19.982   0.867  0.5679 -1.1796 -0.7448
 5195UDC     C757141  16.817  20.026   0.725  0.2888  0.0599  0.2492
 5195UDC     C857142  16.833  20.175   0.713 -0.2024 -0.1576  0.1237
 5195UDC     C957143  16.818  20.206   0.560  0.0470  0.2421 -0.2347
 5195UDC    C1057144  16.946  20.162   0.480  0.0405 -0.2819  0.8262
 5195UDC    C1157145  16.952  20.026   0.408 -0.7109 -0.3215 -0.7100
 5196UDC     C157146  19.596  11.087  18.956 -0.7102  0.2035 -0.2189
 5196UDC     C257147  19.723  11.032  19.028  0.0428 -0.2588  1.1932
 5196UDC     C357148  19.844  11.087  18.958  0.9875 -0.7637  0.8276
 5196UDC     C457149  19.856  11.041  18.812  0.1141 -0.1276 -0.0489
 5196UDC     C557150  19.897  10.888  18.800  0.4470 -0.1590 -0.2151
 5196UDC     C657151  19.954  10.845  18.664 -0.1007  0.2648  0.3125
 5196UDC     C757152  19.866  10.903  18.544 -0.7953  0.5666 -0.4004
 5196UDC     C857153  19.929  10.844  18.411 -0.0646 -0.7835  0.1297
 5196UDC     C957154  20.051  10.916  18.344 -0.7276  0.2860 -0.3292
 5196UDC    C1057155  20.062  11.077  18.338  0.3782  1.0820  0.2141
 5196UDC    C1157156  20.186  11.132  18.265 -0.3091 -0.2559 -0.2097
 5197UDC     C157157  19.572  18.359  12.237 -0.5232 -0.7835 -0.1845
 5197UDC     C257158  19.616  18.500  12.292  0.2040 -0.2810 -1.1626
 5197UDC     C357159  19.497  18.593  12.299  0.7460  0.3650 -0.3209
 5197UDC     C457160  19.509  18.679  12.422  0.1484  1.3288  0.4362
 5197UDC     C557161  19.476  18.596  12.547 -0.5547  0.0137 -0.5615
 5197UDC     C657162  19.425  18.681  12.656  0.4957  0.8942 -0.1221
 5197UDC     C757163  19.292  18.753  12.628 -0.0804 -1.3288 -0.2442
 5197UDC     C857164  19.273  18.905  12.659 -0.2682  0.6759  0.3526
 5197UDC     C957165  19.311  18.918  12.811 -0.9985  0.9077 -0.6012
 5197UDC    C1057166  19.299  19.060  12.871  0.1483 -0.4289  0.3446
 5197UDC    C1157167  19.344  19.083  13.013 -0.3257 -0.2941  1.0801
 5198UDC     C157168  18.725   7.305   5.071  1.0894  0.2369  0.7860
 5198UDC     C257169  18.715   7.149   5.064 -0.4719 -0.2147  0.4628
 5198UDC     C357170  18.629   7.109   4.935 -1.1436  0.6589  0.2190
 5198UDC     C457171  18.629   6.956   4.919 -0.1466 -0.2094 -0.6733
 5198UDC     C557172  18.763   6.897   4.879 -0.6837 -0.0446  0.6834
 5198UDC     C657173  18.747   6.748   4.849 -1.0573  1.1682  0.0776
 5198UDC     C757174  18.887   6.674   4.835 -0.5319  0.0098  1.3961
 5198UDC     C857175  18.876   6.551   4.927  0.3325  0.3001 -0.6144
 5198UDC     C957176  19.005   6.491   4.982  1.3641  0.3618 -0.0802
 5198UDC    C1057177  19.116   6.580   5.034 -0.0221  0.4382  0.0190
 5198UDC    C1157178  19.218   6.502   5.117  0.3774  0.8391 -0.4035
 5199UDC     C157179   0.841   3.128  17.375 -0.6740  1.2496 -0.2262
 5199UDC     C257180   0.968   3.204  17.347  0.2566  0.3074  0.4705
 5199UDC     C357181   1.101   3.112  17.353  0.5664  0.3150 -0.7665
 5199UDC     C457182   1.118   3.015  17.471  0.7320  0.1220  0.3037
 5199UDC     C557183   1.252   2.925  17.464  0.0078 -0.4037  1.0031
 5199UDC     C657184   1.280   2.831  17.587 -0.1646  0.1882  0.6375
 5199UDC     C757185   1.420   2.767  17.611 -0.7274 -0.1498  0.4661
 5199UDC     C857186   1.549   2.839  17.672 -0.4216  0.9417 -0.7143
 5199UDC     C957187   1.636   2.731  17.739  0.8600 -0.8568 -0.1539
 5199UDC    C1057188   1.766   2.784  17.800  0.6415 -0.0893 -0.1336
 5199UDC    C1157189   1.778   2.742  17.949 -0.1435 -1.0777 -1.0421
 5200UDC     C157190   2.694   4.076   9.890 -0.1341 -0.4792 -0.1778
 5200UDC     C257191   2.658   4.118   9.744  0.1899 -0.3496  1.2992
 5200UDC     C357192   2.560   4.030   9.655  0.2671  0.3400  0.1546
 5200UDC     C457193   2.645   3.952   9.556 -1.4332  0.6348 -0.3969
 5200UDC     C557194   2.573   3.834   9.487 -0.4374  0.4864 -0.7871
 5200UDC     C657195   2.509   3.727   9.578  0.2107  0.0945 -0.4507
 5200UDC     C757196   2.554   3.586   9.524 -0.3711  0.2584 -1.0776
 5200UDC     C857197   2.486   3.480   9.599 -1.2083 -0.6982 -0.3513
 5200UDC     C957198   2.543   3.341   9.578 -0.1107 -1.0646  0.4855
 5200UDC    C1057199   2.435   3.243   9.528  0.1846  0.1066  0.4356
 5200UDC    C1157200   2.401   3.131   9.627  0.5084  0.9771  0.0379
 5201UDC     C157201  12.587  18.314  10.411 -0.3343 -1.5953  0.3342
 5201UDC     C257202  12.648  18.369  10.274 -0.1022 -0.0030 -0.0765
 5201UDC     C357203  12.691  18.266  10.166 -0.3100 -0.7501  0.4485
 5201UDC     C457204  12.836  18.311  10.125 -0.4975  1.2070  0.2680
 5201UDC     C557205  12.840  18.460  10.101 -0.5730 -0.9753  0.7621
 5201UDC     C657206  12.977  18.538  10.095  0.2633  0.0407  0.8611
 5201UDC     C757207  13.015  18.603   9.954  0.3726 -1.0080 -0.3252
 5201UDC     C857208  12.909  18.718   9.947 -0.4185  0.3683  1.8992
 5201UDC     C957209  12.902  18.768   9.794 -0.7121 -0.2481 -2.2748
 5201UDC    C1057210  12.786  18.859   9.760  0.4602  0.6617  1.0427
 5201UDC    C1157211  12.759  18.882   9.608 -1.0074  0.2717  0.1196
 5202UDC     C157212  12.221  12.155  12.380  0.0215  0.0676  0.0530
 5202UDC     C257213  12.090  12.072  12.371 -0.3622 -1.2240 -0.5506
 5202UDC     C357214  11.957  12.155  12.391  0.5767  0.0310 -0.5086
 5202UDC     C457215  11.817  12.086  12.385  0.5752  0.2891  0.3836
 5202UDC     C557216  11.761  12.008  12.509 -1.1525  0.4501 -0.2434
 5202UDC     C657217  11.645  11.910  12.494 -0.4582  1.1276 -0.6327
 5202UDC     C757218  11.631  11.837  12.638  0.0681  0.3504 -0.0119
 5202UDC     C857219  11.597  11.690  12.625 -0.7701 -0.3645 -0.3499
 5202UDC     C957220  11.456  11.654  12.597  0.7466  0.8159  1.0059
 5202UDC    C1057221  11.426  11.501  12.591 -0.4924  0.6174 -0.1819
 5202UDC    C1157222  11.524  11.423  12.503 -0.2134 -0.3925 -0.4781
 5203UDC     C157223  10.079   9.460   3.791  0.9104  0.1943 -0.4086
 5203UDC     C257224  10.139   9.560   3.885 -0.3764  1.0019 -0.3850
 5203UDC     C357225  10.274   9.527   3.955  0.1997 -0.5946 -0.6153
 5203UDC     C457226  10.339   9.638   4.033  0.3796 -0.3999 -1.0187
 5203UDC     C557227  10.348   9.769   3.964 -0.0120  0.4480 -0.0367
 5203UDC     C657228  10.424   9.766   3.831 -0.2656  0.1386 -0.2509
 5203UDC     C757229  10.404   9.901   3.752 -0.8902 -0.1694 -0.2061
 5203UDC     C857230  10.472  10.032   3.796 -0.7708 -0.5972 -0.7196
 5203UDC     C957231  10.627  10.031   3.772  0.2131 -0.2537  0.0656
 5203UDC    C1057232  10.681  10.155   3.847  0.0962  0.2852  0.5615
 5203UDC    C1157233  10.822  10.174   3.799  0.6144 -0.0913 -0.0758
 5204UDC     C157234  19.924  16.362   4.469  0.1855  0.1915 -0.5350
 5204UDC     C257235  19.943  16.465   4.586  0.3185  0.4100  0.4057
 5204UDC     C357236  19.971  16.387   4.717  1.0694 -0.1372  0.0182
 5204UDC     C457237  20.117  16.356   4.753  0.4074 -0.4236  0.1279
 5204UDC     C557238  20.217  16.471   4.738  0.2109 -0.8082  0.8268
 5204UDC     C657239  20.213  16.576   4.852 -0.8153 -0.3494 -0.1298
 5204UDC     C757240  20.269  16.714   4.811 -0.6951  0.4211  0.1236
 5204UDC     C857241  20.265  16.825   4.921 -0.3810  0.4265  0.4073
 5204UDC     C957242  20.341  16.959   4.895  0.0023  0.5028 -0.0345
 5204UDC    C1057243  20.484  16.966   4.956 -0.7951  0.4039 -0.7995
 5204UDC    C1157244  20.559  17.091   4.894 -0.7219 -0.0073 -1.0692
 5205UDC     C157245   8.043   9.361   9.873  0.0413 -0.3312  0.9086
 5205UDC     C257246   8.124   9.372  10.005  0.0796 -0.3210 -0.1930
 5205UDC     C357247   8.240   9.267  10.028  0.9783 -0.7835  0.0596
 5205UDC     C457248   8.306   9.263  10.164 -0.1840 -0.3195  0.0313
 5205UDC     C557249   8.454   9.223  10.140  0.0537  0.0365 -0.1126
 5205UDC     C657250   8.540   9.205  10.265  0.4959 -0.1301  0.9090
 5205UDC     C757251   8.577   9.324  10.351 -0.3759  0.8723  0.2167
 5205UDC     C857252   8.715   9.322  10.429  0.0541 -1.1138  1.6354
 5205UDC     C957253   8.767   9.454  10.470  0.9673 -0.7586  0.4932
 5205UDC    C1057254   8.834   9.527  10.355  1.1054 -1.1217 -0.3651
 5205UDC    C1157255   8.955   9.622  10.380  0.2287 -0.3192 -1.2858
 5206UDC     C157256   7.607  11.817  15.443  0.1636 -1.0045  0.0626
 5206UDC     C257257   7.714  11.743  15.355 -0.1624  0.4892  0.5855
 5206UDC     C357258   7.648  11.662  15.241  0.7228 -0.4291  0.5019
 5206UDC     C457259   7.554  11.740  15.151 -0.1107 -0.1905 -0.3354
 5206UDC     C557260   7.500  11.635  15.050  0.0912 -0.2246 -0.3662
 5206UDC     C657261   7.361  11.583  15.090 -0.1860  0.1101 -0.0366
 5206UDC     C757262   7.266  11.689  15.135 -0.0359 -0.8589  0.0951
 5206UDC     C857263   7.146  11.626  15.204 -0.4573  0.4393  0.5386
 5206UDC     C957264   7.021  11.716  15.187  0.7987 -0.6405 -0.1673
 5206UDC    C1057265   6.889  11.657  15.239  0.3923 -1.1155  0.5779
 5206UDC    C1157266   6.771  11.744  15.188 -0.1436 -0.7698 -0.0214
 5207UDC     C157267   2.183  19.542   7.834  0.7716 -0.9913  1.1129
 5207UDC     C257268   2.238  19.426   7.920 -0.0588 -0.2183  0.2201
 5207UDC     C357269   2.263  19.288   7.858  0.4685  0.6544 -0.3868
 5207UDC     C457270   2.402  19.228   7.831 -0.6872 -0.9885  0.8113
 5207UDC     C557271   2.414  19.077   7.811 -0.0889 -0.4497  0.3317
 5207UDC     C657272   2.551  19.040   7.768 -0.1007  0.2915  1.4410
 5207UDC     C757273   2.578  18.913   7.673  0.0534 -0.7365 -0.5037
 5207UDC     C857274   2.466  18.888   7.571 -0.2507 -1.0503 -0.4954
 5207UDC     C957275   2.438  18.754   7.520  0.9195 -0.0357 -1.0689
 5207UDC    C1057276   2.389  18.764   7.374 -0.0929 -0.2220  0.0324
 5207UDC    C1157277   2.402  18.620   7.318  0.7824  0.3346  0.4385
 5208UDC     C157278   2.185   3.103  14.111 -0.1820 -0.5956 -0.3514
 5208UDC     C257279   2.323   3.165  14.080  0.1917 -0.3315 -0.0175
 5208UDC     C357280   2.424   3.091  13.985 -0.0320 -0.4407 -0.8683
 5208UDC     C457281   2.572   3.133  14.019  0.6724  0.2246  0.3517
 5208UDC     C557282   2.602   3.094  14.170  0.3377 -0.1798  0.4520
 5208UDC     C657283   2.699   3.183  14.262 -0.3542  0.6927  1.3104
 5208UDC     C757284   2.607   3.281  14.344 -0.8365  0.1662  0.0255
 5208UDC     C857285   2.530   3.172  14.419 -0.0455 -0.6280 -0.7121
 5208UDC     C957286   2.407   3.229  14.493 -0.2399 -0.4648  0.3530
 5208UDC    C1057287   2.323   3.132  14.583 -0.3607 -1.1674 -1.0280
 5208UDC    C1157288   2.208   3.204  14.641  0.4678 -0.6207 -0.6800
 5209UDC     C157289   4.211   9.583  18.649  0.3201 -0.0396 -0.5792
 5209UDC     C257290   4.213   9.731  18.695 -0.6534  0.9638 -0.0136
 5209UDC     C357291   4.260   9.757  18.844 -0.7942 -0.3864  0.3101
 5209UDC     C457292   4.199   9.870  18.931 -0.8103  0.6141  0.3176
 5209UDC     C557293   4.303   9.874  19.042 -1.3419  0.7004  0.1402
 5209UDC     C657294   4.439   9.905  18.981  0.3220  1.0267 -0.9540
 5209UDC     C757295   4.468  10.053  18.963  0.4861  0.4604  0.4261
 5209UDC     C857296   4.542  10.093  19.088  0.8351 -0.6463  0.4374
 5209UDC     C957297   4.476  10.054  19.222 -0.8362 -0.5600  0.3713
 5209UDC    C1057298   4.520  10.121  19.352  0.0252  0.1822 -0.7062
 5209UDC    C1157299   4.522  10.001  19.447  0.5507  1.4458  0.2949
 5210UDC     C157300   4.007  18.006   3.587 -1.3492  0.9001 -0.4753
 5210UDC     C257301   3.924  17.900   3.534 -0.2888 -0.1361  0.6612
 5210UDC     C357302   3.833  17.829   3.633  0.6421  0.2968 -0.1547
 5210UDC     C457303   3.713  17.761   3.554  0.1380  0.6502 -0.6640
 5210UDC     C557304   3.754  17.654   3.453  0.6238  0.5448  0.5702
 5210UDC     C657305   3.645  17.637   3.347 -1.2663  0.7336  0.5192
 5210UDC     C757306   3.570  17.773   3.343 -0.3925 -0.3585 -0.0739
 5210UDC     C857307   3.452  17.788   3.241 -0.3141  0.1590 -0.9024
 5210UDC     C957308   3.393  17.926   3.236 -0.7440  0.0658  1.2888
 5210UDC    C1057309   3.497  18.032   3.198  1.3501  0.4926 -0.3784
 5210UDC    C1157310   3.456  18.181   3.193 -0.1039 -0.7109 -0.1911
 5211UDC     C157311  15.192   7.185  10.131  0.3800  0.8842 -0.6745
 5211UDC     C257312  15.062   7.203  10.055  0.5497 -0.4392  0.5712
 5211UDC     C357313  14.960   7.114  10.130  0.2114  1.0638 -0.2931
 5211UDC     C457314  14.831   7.120  10.059  0.5511 -0.4254  0.0693
 5211UDC     C557315  14.717   7.042  10.126  0.9019 -0.0464 -0.4633
 5211UDC     C657316  14.582   7.044  10.061  0.6523 -0.8600  0.1056
 5211UDC     C757317  14.446   7.041  10.134 -0.6976  0.6169  1.2161
 5211UDC     C857318  14.389   7.186  10.153 -0.4697 -0.4440 -1.0296
 5211UDC     C957319  14.245   7.208  10.116  0.7503  0.1115  0.1652
 5211UDC    C1057320  14.144   7.124  10.192  0.8271  0.8510 -0.7805
 5211UDC    C1157321  13.993   7.130  10.162  0.6465 -0.7716 -1.0423
 5212UDC     C157322   4.244   5.543   3.721  0.6399  0.4129 -0.4942
 5212UDC     C257323   4.161   5.509   3.594  0.2782 -0.9005 -0.2899
 5212UDC     C357324   4.224   5.519   3.449 -0.4991  0.0055  0.6546
 5212UDC     C457325   4.128   5.481   3.335 -0.0294 -0.0605 -0.8677
 5212UDC     C557326   4.219   5.446   3.213  0.4478 -0.1124  0.1384
 5212UDC     C657327   4.351   5.525   3.199  0.1160 -0.0193  0.4630
 5212UDC     C757328   4.416   5.509   3.062 -0.4482 -0.6969  0.4734
 5212UDC     C857329   4.440   5.362   3.019 -0.4437  0.4573 -0.0101
 5212UDC     C957330   4.507   5.351   2.875  1.3109  0.7753 -0.8609
 5212UDC    C1057331   4.539   5.203   2.851  0.7442 -0.2347  1.4142
 5212UDC    C1157332   4.438   5.107   2.926 -0.1910  0.4121  0.3831
 5213UDC     C157333  15.532   3.984   2.618 -0.9409 -0.5379 -0.5186
 5213UDC     C257334  15.394   3.961   2.564 -0.2560  0.3604  0.5176
 5213UDC     C357335  15.298   4.074   2.614  0.2126  0.3574  0.4099
 5213UDC     C457336  15.153   4.061   2.567 -0.1635  0.8642 -0.0071
 5213UDC     C557337  15.088   3.928   2.604 -0.5447 -0.9827  0.5856
 5213UDC     C657338  14.936   3.902   2.563 -0.0271 -0.9461  0.0367
 5213UDC     C757339  14.873   3.776   2.624 -0.0078  0.6631  1.2778
 5213UDC     C857340  14.723   3.791   2.645 -0.7553 -0.5626  0.4297
 5213UDC     C957341  14.626   3.683   2.601 -0.2308 -0.5990  0.6988
 5213UDC    C1057342  14.477   3.719   2.644  0.0365 -0.0313 -0.2099
 5213UDC    C1157343  14.419   3.851   2.592 -0.2110 -0.1080  0.0562
 5214UDC     C157344   6.359   2.782   9.850 -0.0012 -0.9961 -0.8521
 5214UDC     C257345   6.344   2.782   9.700 -0.0057  0.0961  0.4055
 5214UDC     C357346   6.233   2.685   9.654  0.1793  0.5800  0.5363
 5214UDC     C457347   6.224   2.678   9.504  0.0615  0.8984  0.4318
 5214UDC     C557348   6.082   2.642   9.451 -0.7464 -0.2170 -0.2890
 5214UDC     C657349   6.039   2.492   9.483 -0.2295 -1.0638  0.2861
 5214UDC     C757350   5.920   2.443   9.393 -0.6623 -0.3499  0.3593
 5214UDC     C857351   5.789   2.493   9.454  0.6253  1.0521 -0.2431
 5214UDC     C957352   5.764   2.453   9.600  0.0835 -0.5535 -0.2793
 5214UDC    C1057353   5.642   2.519   9.666 -0.2530  0.1176 -0.0073
 5214UDC    C1157354   5.637   2.676   9.631 -0.0344 -0.2261  0.0812
 5215UDC     C157355  18.573  10.555   1.537 -0.9828 -1.3240  0.8832
 5215UDC     C257356  18.630  10.678   1.622 -0.7330  0.1283 -0.2847
 5215UDC     C357357  18.645  10.641   1.771  1.1016  0.2928 -1.9158
 5215UDC     C457358  18.759  10.551   1.817 -1.4184  0.2311  0.0566
 5215UDC     C557359  18.749  10.445   1.933 -0.3925 -0.2125  0.3374
 5215UDC     C657360  18.873  10.373   1.971  1.4037  0.7145  1.3568
 5215UDC     C757361  18.940  10.280   1.873  0.6973 -0.3626  1.1543
 5215UDC     C857362  18.906  10.128   1.906  0.7211  0.6370 -0.3374
 5215UDC     C957363  18.993  10.030   1.821  0.3066  0.0668 -0.1059
 5215UDC    C1057364  18.992  10.056   1.675 -0.8812 -0.0707  0.2059
 5215UDC    C1157365  19.128  10.038   1.601  1.0951 -0.1111  0.7718
 5216UDC     C157366  16.597   6.814   5.976 -0.9100  0.8862  0.6709
 5216UDC     C257367  16.709   6.787   6.076  0.6729 -0.2842 -0.7560
 5216UDC     C357368  16.660   6.690   6.184  0.0802 -0.5518 -0.8907
 5216UDC     C457369  16.735   6.680   6.315  0.2480  0.3450  0.0619
 5216UDC     C557370  16.891   6.644   6.310 -0.3060  0.1251 -0.5835
 5216UDC     C657371  16.911   6.497   6.278 -1.2677  0.7660 -0.0764
 5216UDC     C757372  17.064   6.455   6.283 -0.0468 -1.2669  0.5128
 5216UDC     C857373  17.104   6.363   6.172  0.5243  0.4240 -0.6305
 5216UDC     C957374  17.143   6.239   6.252  0.3310  1.0794 -1.0309
 5216UDC    C1057375  17.227   6.137   6.174  0.7170 -0.9796  0.6200
 5216UDC    C1157376  17.234   6.004   6.248  0.3439 -0.5513  1.2311
 5217UDC     C157377  10.697  14.659   8.521 -0.5291 -1.0429 -0.1394
 5217UDC     C257378  10.640  14.636   8.659  0.0122  0.0814 -0.8144
 5217UDC     C357379  10.483  14.646   8.676 -0.8038  1.3059 -0.8175
 5217UDC     C457380  10.433  14.676   8.821  1.1888 -0.1527  0.3489
 5217UDC     C557381  10.279  14.680   8.814  1.4351 -0.5175 -0.0168
 5217UDC     C657382  10.193  14.747   8.928 -0.0031 -0.2891  1.6938
 5217UDC     C757383  10.182  14.652   9.048  0.1358 -0.6583  0.1604
 5217UDC     C857384  10.040  14.652   9.110  0.7365  0.1966  0.3454
 5217UDC     C957385   9.923  14.660   9.010  0.0548  0.6643  0.1755
 5217UDC    C1057386   9.787  14.651   9.085 -0.0868  0.4610 -0.1146
 5217UDC    C1157387   9.750  14.770   9.183  0.3112  0.2364 -0.0596
 5218UDC     C157388  10.664   8.244  13.855 -0.2791 -0.0453  0.8072
 5218UDC     C257389  10.805   8.309  13.826 -0.4840  0.3794  0.1153
 5218UDC     C357390  10.838   8.275  13.676  0.4511 -0.1730 -0.6252
 5218UDC     C457391  10.976   8.315  13.630  0.2915  0.8139 -0.1454
 5218UDC     C557392  11.028   8.295  13.484 -0.1779  1.0352  0.0953
 5218UDC     C657393  11.139   8.386  13.439 -0.0154  0.7440  0.3359
 5218UDC     C757394  11.153   8.417  13.288  0.2631  0.3335 -0.0406
 5218UDC     C857395  11.281   8.484  13.243  0.0768  0.2065  0.0722
 5218UDC     C957396  11.322   8.481  13.098  0.2618  0.5854  0.1436
 5218UDC    C1057397  11.443   8.575  13.068  0.0310 -0.5881  0.2217
 5218UDC    C1157398  11.399   8.723  13.087 -0.3066  0.5411  0.3309
 5219UDC     C157399  10.874  11.468   8.282  0.1006 -1.7095  0.4741
 5219UDC     C257400  10.881  11.501   8.431  0.4143 -1.0346 -0.4323
 5219UDC     C357401  10.999  11.418   8.493 -0.5902  0.3927  0.2354
 5219UDC     C457402  11.004  11.412   8.650 -0.2719  0.5323 -0.1880
 5219UDC     C557403  10.911  11.318   8.719  0.2990  0.7915 -0.7100
 5219UDC     C657404  10.931  11.292   8.872  1.1563 -0.3917 -0.7883
 5219UDC     C757405  10.879  11.417   8.953 -0.4358 -1.2851  0.7150
 5219UDC     C857406  10.726  11.447   8.955  0.7618 -0.5076  0.1123
 5219UDC     C957407  10.686  11.588   9.001 -0.1514  0.3180  0.5670
 5219UDC    C1057408  10.723  11.698   8.891 -0.3437  0.5579 -0.2284
 5219UDC    C1157409  10.751  11.832   8.949  0.3212 -0.3906 -0.1008
 5220UDC     C157410   2.823  18.453   9.571 -0.4112 -0.8784 -0.6402
 5220UDC     C257411   2.944  18.448   9.474  0.6193 -0.1196  0.3497
 5220UDC     C357412   2.876  18.490   9.341 -0.6065 -1.3595 -0.7603
 5220UDC     C457413   2.981  18.571   9.256 -0.8733  0.1657 -0.0728
 5220UDC     C557414   3.120  18.526   9.220  2.0424  0.4178  0.4424
 5220UDC     C657415   3.222  18.626   9.163  0.5147  0.7472  0.5223
 5220UDC     C757416   3.366  18.572   9.157  1.3832  0.1389  0.5332
 5220UDC     C857417   3.399  18.545   9.302 -0.2958  0.2098  0.5417
 5220UDC     C957418   3.500  18.436   9.337 -0.2090 -0.5210  0.2466
 5220UDC    C1057419   3.566  18.453   9.479 -0.3853  0.1322 -0.6504
 5220UDC    C1157420   3.656  18.346   9.536 -1.0697 -0.0591  0.0953
 5221UDC     C157421  16.075  14.416  18.358 -0.1983 -0.1214 -1.6228
 5221UDC     C257422  15.979  14.306  18.308  0.1994  0.3241  0.8224
 5221UDC     C357423  16.058  14.189  18.243  0.0317 -0.2514  0.1661
 5221UDC     C457424  16.206  14.160  18.298  0.9466  0.1698  0.3023
 5221UDC     C557425  16.272  14.058  18.211 -1.0453  1.0754 -0.2922
 5221UDC     C657426  16.414  14.026  18.250 -1.2543  0.2976 -0.1619
 5221UDC     C757427  16.501  14.148  18.221 -0.5148  0.2606  0.7244
 5221UDC     C857428  16.646  14.140  18.264  0.0211  0.2458  0.3002
 5221UDC     C957429  16.732  14.266  18.283  0.6142 -1.6085 -0.7337
 5221UDC    C1057430  16.635  14.355  18.363  0.1425 -0.2590 -0.4823
 5221UDC    C1157431  16.666  14.506  18.362 -0.9537  0.2964 -0.4610
 5222UDC     C157432   2.544   5.648   9.948 -0.1265  0.0375 -0.1116
 5222UDC     C257433   2.625   5.751  10.037 -0.1444 -0.1528  0.6985
 5222UDC     C357434   2.726   5.846   9.969 -0.0043  0.6154  0.6199
 5222UDC     C457435   2.770   5.967  10.053 -1.2361 -0.0625 -1.0031
 5222UDC     C557436   2.838   6.069   9.967 -0.1433  0.2475  0.1108
 5222UDC     C657437   2.980   6.105  10.015 -0.5357 -0.0998 -0.1184
 5222UDC     C757438   2.985   6.120  10.162  0.4038 -0.4635 -0.4171
 5222UDC     C857439   3.115   6.098  10.234 -0.8310 -1.5008  0.0397
 5222UDC     C957440   3.095   6.118  10.384  0.7134 -0.8723 -0.8079
 5222UDC    C1057441   3.090   6.266  10.418  1.1398  0.3816 -0.4299
 5222UDC    C1157442   3.115   6.265  10.570  0.1414 -0.5217 -1.1183
 5223UDC     C157443  11.224  17.058   0.779  0.9862  0.7286  1.2268
 5223UDC     C257444  11.084  17.032   0.853 -0.2811  0.5044  0.0504
 5223UDC     C357445  11.053  17.011   1.002 -0.6545 -0.6150  0.7934
 5223UDC     C457446  10.905  17.032   1.045 -0.3662  0.1728 -0.2494
 5223UDC     C557447  10.857  17.098   1.174 -0.4873 -0.1581 -0.6509
 5223UDC     C657448  10.915  17.240   1.220 -1.2545  1.0721  1.1114
 5223UDC     C757449  10.842  17.334   1.310  0.9893  0.1539 -1.4761
 5223UDC     C857450  10.711  17.389   1.254  0.9905 -0.7489  0.4554
 5223UDC     C957451  10.673  17.515   1.333 -0.7145 -0.0971  0.7919
 5223UDC    C1057452  10.525  17.555   1.329 -0.1183  0.2056 -1.5934
 5223UDC    C1157453  10.448  17.577   1.198 -1.6836  1.3941  0.2879
 5224UDC     C157454   0.767  11.848  17.595  0.3239 -0.0451  0.2855
 5224UDC     C257455   0.780  11.799  17.735 -0.5009  0.3578  1.1743
 5224UDC     C357456   0.897  11.859  17.809 -0.2474 -0.0548 -0.6365
 5224UDC     C457457   0.905  12.016  17.840  0.3661 -0.1308  0.2926
 5224UDC     C557458   0.782  12.080  17.898  0.4792  0.8537  0.1930
 5224UDC     C657459   0.765  12.231  17.876  0.3256 -0.6668  0.1686
 5224UDC     C757460   0.801  12.341  17.980 -1.0934 -0.1787  0.5756
 5224UDC     C857461   0.759  12.471  17.912  0.5773  0.0983  1.0705
 5224UDC     C957462   0.626  12.444  17.828 -0.8683  0.0409  0.2812
 5224UDC    C1057463   0.529  12.555  17.807  0.7421 -1.1068 -0.5756
 5224UDC    C1157464   0.428  12.532  17.697  0.0763 -0.5043  0.3334
 5225UDC     C157465  18.928   4.725   6.044  0.5436 -0.5230 -0.3759
 5225UDC     C257466  18.869   4.589   6.082  0.1730  1.0670  1.2298
 5225UDC     C357467  18.967   4.479   6.029  0.2685 -0.2110  0.9626
 5225UDC     C457468  19.062   4.521   5.909 -0.4243  0.2742 -0.3675
 5225UDC     C557469  19.019   4.494   5.760 -0.1078  0.1877 -0.0700
 5225UDC     C657470  19.086   4.371   5.700  0.4697  1.0225  1.2370
 5225UDC     C757471  19.064   4.235   5.774 -0.0211  0.6245  0.5109
 5225UDC     C857472  19.158   4.105   5.736  2.1782  0.0680  0.3723
 5225UDC     C957473  19.295   4.100   5.811  0.2312 -0.2805  0.0451
 5225UDC    C1057474  19.389   3.981   5.780 -0.5587 -0.4463  0.2901
 5225UDC    C1157475  19.333   3.844   5.816 -0.0815  0.2196  0.3909
 5226UDC     C157476  14.887  10.914  14.694 -0.7035  0.1802  0.6758
 5226UDC     C257477  14.827  10.925  14.546 -0.6562 -0.1538 -0.2955
 5226UDC     C357478  14.908  11.020  14.452 -0.8864 -1.1927  0.7751
 5226UDC     C457479  14.831  11.062  14.319  0.6549 -0.8256 -1.2599
 5226UDC     C557480  14.809  10.952  14.208 -0.2677 -0.1969 -0.7216
 5226UDC     C657481  14.733  11.018  14.084  0.6162 -0.0748 -0.5462
 5226UDC     C757482  14.724  10.908  13.984 -0.0829  0.4308  0.1663
 5226UDC     C857483  14.736  10.951  13.831  0.1285 -0.3913  0.4844
 5226UDC     C957484  14.854  11.040  13.791 -0.1742 -0.3917  0.6051
 5226UDC    C1057485  14.840  11.085  13.647  0.5124  0.1786 -0.0658
 5226UDC    C1157486  14.954  11.186  13.621  0.2083  0.0614 -0.0069
 5227UDC     C157487  18.607  19.865  18.699 -0.6056  0.0819 -0.2089
 5227UDC     C257488  18.688  19.904  18.825 -0.1740 -0.0618  0.1135
 5227UDC     C357489  18.831  19.879  18.799  0.5280 -0.2470  1.5675
 5227UDC     C457490  18.946  19.961  18.862 -0.5324  1.0169  0.6404
 5227UDC     C557491  18.951  19.889  18.992 -0.0678 -0.4898  1.3000
 5227UDC     C657492  19.024  19.973  19.097 -0.5381  1.1919  0.9073
 5227UDC     C757493  19.008  19.904  19.238 -0.7603  0.1638  0.5401
 5227UDC     C857494  19.054  19.994  19.349 -0.1051  0.4473 -0.5512
 5227UDC     C957495  18.957  20.106  19.381  0.5659  0.6858  0.8072
 5227UDC    C1057496  18.836  20.054  19.458 -0.3172 -0.3089 -0.1134
 5227UDC    C1157497  18.810  20.139  19.585  0.1713  0.1875 -0.0479
 5228UDC     C157498  16.263   2.322  19.709 -0.6324 -0.2370 -1.1299
 5228UDC     C257499  16.182   2.448  19.702  0.0875  0.5890 -0.0520
 5228UDC     C357500  16.219   2.541  19.826  0.6173 -0.4938  0.5843
 5228UDC     C457501  16.140   2.667  19.861  0.1066  0.9613  0.6208
 5228UDC     C557502  16.215   2.767  19.947  0.3972 -0.2928 -0.3632
 5228UDC     C657503  16.125   2.861  20.040  0.5390  0.1741  0.3938
 5228UDC     C757504  16.208   2.968  20.120 -0.1862  0.2866  0.2368
 5228UDC     C857505  16.134   3.015  20.247  0.4387  0.4739  0.1296
 5228UDC     C957506  16.215   3.103  20.343  0.7391  0.4407  0.4516
 5228UDC    C1057507  16.133   3.128  20.467 -0.1330 -0.5599 -0.1823
 5228UDC    C1157508  16.089   3.005  20.554  1.8040 -0.6113  0.3102
 5229UDC     C157509   2.602   7.517  18.400 -0.3522 -0.0802  0.3900
 5229UDC     C257510   2.605   7.576  18.259 -0.3276 -0.0076 -0.4043
 5229UDC     C357511   2.744   7.585  18.207 -0.2753 -0.3559 -0.3226
 5229UDC     C457512   2.841   7.689  18.274 -0.2353  0.1026  0.2251
 5229UDC     C557513   2.964   7.741  18.196  0.3507 -0.5693 -0.6615
 5229UDC     C657514   3.013   7.880  18.238 -0.7576 -0.3353 -0.0018
 5229UDC     C757515   3.023   7.965  18.106 -0.1347  0.4968  0.2456
 5229UDC     C857516   3.162   8.026  18.099 -0.1491  1.0649  0.0452
 5229UDC     C957517   3.284   7.939  18.074 -1.1674 -1.3145  0.2873
 5229UDC    C1057518   3.431   7.992  18.092  0.0936  0.3123 -0.2571
 5229UDC    C1157519   3.442   8.081  18.221 -0.3006  1.6208 -0.3080
 5230UDC     C157520  19.408  16.365  13.056 -0.1053 -0.5673  0.2038
 5230UDC     C257521  19.559  16.363  13.075  0.1222 -0.7232 -0.3029
 5230UDC     C357522  19.587  16.331  13.221 -0.4735  0.3149 -0.4114
 5230UDC     C457523  19.504  16.216  13.279 -0.2636 -0.0552  0.2442
 5230UDC     C557524  19.527  16.141  13.407  0.8493  0.3123  0.0070
 5230UDC     C657525  19.455  16.192  13.532  0.3744 -0.1430 -0.1771
 5230UDC     C757526  19.517  16.146  13.663  0.3709  0.6898  0.0830
 5230UDC     C857527  19.438  16.164  13.789 -0.1935 -0.7309  0.0631
 5230UDC     C957528  19.464  16.085  13.913 -0.3914 -0.3805 -0.9089
 5230UDC    C1057529  19.428  15.933  13.918 -0.4227  0.4206  0.8346
 5230UDC    C1157530  19.468  15.821  13.821  0.0964  0.4945  0.4852
 5231UDC     C157531  13.649   0.464   4.269  0.8312 -0.0951  0.4701
 5231UDC     C257532  13.691   0.321   4.227  0.8576  0.8041 -0.2552
 5231UDC     C357533  13.838   0.270   4.240  0.2473  1.0250 -1.4574
 5231UDC     C457534  13.877   0.139   4.163 -0.4820 -0.4990 -0.6943
 5231UDC     C557535  13.860   0.158   4.013  0.6320  0.5878  0.4027
 5231UDC     C657536  13.971   0.248   3.961 -0.3355  0.7127 -0.5696
 5231UDC     C757537  14.112   0.193   3.990  0.1122 -1.0086 -0.5021
 5231UDC     C857538  14.195   0.281   4.088  0.6033  0.0127 -0.3184
 5231UDC     C957539  14.339   0.254   4.140  0.3329  0.1262 -0.5872
 5231UDC    C1057540  14.351   0.241   4.290  0.2820  0.4592 -1.1555
 5231UDC    C1157541  14.280   0.122   4.361 -0.0803 -0.5966  0.3402
 5232UDC     C157542   3.612  19.158  12.743 -0.8510 -0.7129  0.1931
 5232UDC     C257543   3.489  19.075  12.782  0.6239  0.3364  0.4631
 5232UDC     C357544   3.346  19.124  12.773  1.0114 -0.4248  0.7473
 5232UDC     C457545   3.304  19.144  12.628  0.4949  0.2728 -0.7232
 5232UDC     C557546   3.161  19.142  12.599 -0.6174 -0.0085  0.4351
 5232UDC     C657547   3.137  19.198  12.453  0.5508  0.5093  0.7110
 5232UDC     C757548   3.034  19.304  12.482  0.4607  0.2172  0.7062
 5232UDC     C857549   2.940  19.350  12.371  0.3284  0.2609 -0.4889
 5232UDC     C957550   2.885  19.492  12.388  0.9970  0.1096 -0.0197
 5232UDC    C1057551   2.821  19.585  12.284  0.1844  0.2709  0.3100
 5232UDC    C1157552   2.702  19.502  12.243  0.2505  0.0456  0.9469
 5233UDC     C157553   6.911   1.189   0.104  0.1726 -0.4281  0.9493
 5233UDC     C257554   7.031   1.263   0.159  0.3520  0.8229  0.0130
 5233UDC     C357555   7.035   1.403   0.108  0.0230 -0.2802  0.4691
 5233UDC     C457556   7.174   1.452   0.145 -0.1693  0.3513 -0.0116
 5233UDC     C557557   7.234   1.536   0.030  0.4688 -0.8430  0.1235
 5233UDC     C657558   7.309   1.451  -0.073  0.3891  0.3851 -1.8941
 5233UDC     C757559   7.340   1.546  -0.183  0.0721  0.5979 -0.0713
 5233UDC     C857560   7.360   1.465  -0.320  0.9184 -0.0220  0.4197
 5233UDC     C957561   7.489   1.493  -0.403 -0.4558  0.9021  0.6183
 5233UDC    C1057562   7.524   1.386  -0.509 -0.3762 -0.7994  1.0801
 5233UDC    C1157563   7.670   1.336  -0.523  0.7824 -0.9825  0.1764
 5234UDC     C157564  17.192   6.678   3.021 -0.0103 -0.0634  1.7433
 5234UDC     C257565  17.235   6.789   3.114 -0.0220  0.2952  0.5365
 5234UDC     C357566  17.104   6.843   3.174  0.3573  0.1265  0.2719
 5234UDC     C457567  17.135   6.974   3.243  0.2649 -1.0183 -1.1397
 5234UDC     C557568  17.047   7.036   3.351  0.1473  0.0792  0.2292
 5234UDC     C657569  17.111   7.016   3.492  0.4974 -0.4092 -0.3101
 5234UDC     C757570  17.003   6.986   3.599 -0.1267 -0.4598 -0.0423
 5234UDC     C857571  17.056   6.987   3.737 -0.6268 -0.1850 -0.1780
 5234UDC     C957572  16.980   6.903   3.844 -0.8495  0.7252  0.6174
 5234UDC    C1057573  17.077   6.912   3.963  0.7166  0.5005  0.3423
 5234UDC    C1157574  17.015   6.876   4.102 -0.5313  0.5746  1.1273
 5235UDC     C157575  17.210  11.185   0.002  0.7292  1.5956  0.1297
 5235UDC     C257576  17.133  11.151   0.135 -0.4215  0.1948  0.8056
 5235UDC     C357577  16.991  11.215   0.108 -0.8211  0.0375  0.1127
 5235UDC     C457578  16.892  11.203   0.219  0.9020 -0.1125 -0.8087
 5235UDC     C557579  16.748  11.255   0.195 -0.6742 -0.4164 -0.1381
 5235UDC     C657580  16.731  11.394   0.115  1.2324  0.1180  0.4483
 5235UDC     C757581  16.588  11.451   0.102  0.2909  0.8194  0.9334
 5235UDC     C857582  16.468  11.411   0.195 -0.0279 -0.8474 -0.0541
 5235UDC     C957583  16.349  11.511   0.172 -0.5179  0.7775 -0.1795
 5235UDC    C1057584  16.233  11.499   0.266 -0.1485  0.2218 -0.0316
 5235UDC    C1157585  16.122  11.604   0.236  1.3318 -0.0180  1.3730
 5236UDC     C157586  15.794   6.933  16.681 -0.0664  0.4313  0.1257
 5236UDC     C257587  15.919   7.018  16.702 -0.3895  0.1356 -0.3722
 5236UDC     C357588  15.940   7.113  16.581 -0.4656 -0.4909 -0.2179
 5236UDC     C457589  15.834   7.227  16.568  0.8079 -0.0691  0.4857
 5236UDC     C557590  15.830   7.320  16.688  0.3068  1.7305  1.1997
 5236UDC     C657591  15.693   7.311  16.751  0.4769  0.0811 -0.8637
 5236UDC     C757592  15.663   7.399  16.868 -0.7797  0.4992 -0.4069
 5236UDC     C857593  15.533   7.390  16.940  0.1207 -0.9958 -1.3583
 5236UDC     C957594  15.521   7.454  17.081 -0.0198  0.8310  0.4555
 5236UDC    C1057595  15.375   7.452  17.131  0.4871 -0.1293  0.7651
 5236UDC    C1157596  15.346   7.519  17.267  0.5131  0.5360 -0.0864
 5237UDC     C157597   3.861   8.135  10.719  0.0797 -0.6924 -0.1900
 5237UDC     C257598   3.786   8.239  10.809 -0.9133 -0.0048 -0.9880
 5237UDC     C357599   3.804   8.194  10.955 -0.2372 -0.5408 -0.5569
 5237UDC     C457600   3.698   8.194  11.064 -0.3583  0.4206  0.5074
 5237UDC     C557601   3.727   8.077  11.165 -0.0741 -0.6751  0.4876
 5237UDC     C657602   3.605   8.002  11.223 -0.0062  0.6375 -1.1951
 5237UDC     C757603   3.638   7.884  11.317  0.2632 -0.0948 -0.0210
 5237UDC     C857604   3.542   7.880  11.439  0.2822  1.0036 -0.4751
 5237UDC     C957605   3.546   8.002  11.528 -0.4828 -0.8243  0.1415
 5237UDC    C1057606   3.464   7.980  11.657  0.3257 -0.2193  0.5483
 5237UDC    C1157607   3.482   7.834  11.698  0.4503  0.3396 -0.1036
 5238UDC     C157608   1.704   8.640   9.487 -0.1247 -1.0915  0.5383
 5238UDC     C257609   1.803   8.546   9.419  0.4648 -0.3223  0.5280
 5238UDC     C357610   1.807   8.412   9.491  0.1161 -0.9958 -1.8501
 5238UDC     C457611   1.860   8.312   9.394  0.9195  0.4208  0.2383
 5238UDC     C557612   1.947   8.210   9.466 -0.0703 -0.3197 -0.3711
 5238UDC     C657613   1.937   8.190   9.617 -0.5927  0.1177  0.1631
 5238UDC     C757614   1.985   8.064   9.691 -1.2413  1.1296 -0.7435
 5238UDC     C857615   1.929   8.032   9.829  0.8890  1.1869 -0.8615
 5238UDC     C957616   1.962   7.884   9.872 -0.0099 -1.1112 -0.2781
 5238UDC    C1057617   1.959   7.856  10.023  0.2445  0.1472  0.7338
 5238UDC    C1157618   1.957   7.703  10.064 -0.3011 -0.3802 -0.1844
 5239UDC     C157619  13.763   1.029   5.509 -0.5864 -0.2080 -0.2370
 5239UDC     C257620  13.872   0.924   5.496 -0.0057  0.1718 -0.0894
 5239UDC     C357621  13.914   0.873   5.642 -0.1292  0.7589  0.5679
 5239UDC     C457622  13.997   0.742   5.660 -0.7220  0.2895 -0.1241
 5239UDC     C557623  14.023   0.717   5.807 -1.4974  0.6614 -0.1807
 5239UDC     C657624  14.134   0.609   5.840 -0.2254  0.8384  1.7435
 5239UDC     C757625  14.140   0.569   5.988 -0.3825  0.1213 -0.3207
 5239UDC     C857626  14.002   0.555   6.056  0.5079  0.5234 -0.4987
 5239UDC     C957627  13.987   0.504   6.202 -0.9528 -0.9394  0.7898
 5239UDC    C1057628  13.844   0.520   6.250 -0.7053 -0.2682 -0.3317
 5239UDC    C1157629  13.840   0.474   6.395  0.7335 -0.4472 -0.8923
 5240UDC     C157630  15.771  12.461  11.667  0.4190  0.3721 -0.5776
 5240UDC     C257631  15.725  12.321  11.710 -0.6129  0.4043 -0.1673
 5240UDC     C357632  15.648  12.284  11.580 -0.8879  0.7744 -0.5044
 5240UDC     C457633  15.605  12.134  11.564  1.1588  0.8709 -0.0582
 5240UDC     C557634  15.512  12.130  11.443 -0.4150  0.8277 -0.0219
 5240UDC     C657635  15.408  12.241  11.449  0.5588 -0.1221  1.1918
 5240UDC     C757636  15.273  12.191  11.473 -0.3371  0.2885 -0.4541
 5240UDC     C857637  15.155  12.284  11.508 -0.7879 -0.5892  0.1345
 5240UDC     C957638  15.020  12.215  11.504  1.6049 -0.1145  1.2193
 5240UDC    C1057639  14.970  12.155  11.368 -0.5392 -0.5576  0.2733
 5240UDC    C1157640  14.998  12.007  11.364 -1.2945  0.2677  0.2336
 5241UDC     C157641   6.929   0.549  13.182 -0.4363 -0.1754 -0.2688
 5241UDC     C257642   6.956   0.654  13.299  0.1831  0.0589  0.1835
 5241UDC     C357643   7.009   0.796  13.257  0.3852 -0.1230 -0.0838
 5241UDC     C457644   6.898   0.879  13.190 -0.2276  0.0341  0.5019
 5241UDC     C557645   6.907   0.871  13.036 -0.2941 -0.7999 -0.1678
 5241UDC     C657646   7.042   0.936  12.995  0.0025  1.0890 -0.9287
 5241UDC     C757647   7.096   0.907  12.851 -0.5782  0.3501 -0.6325
 5241UDC     C857648   7.026   0.967  12.722 -0.9696  1.1438  0.3171
 5241UDC     C957649   7.072   0.889  12.603 -0.0305 -0.7346 -0.4638
 5241UDC    C1057650   7.083   0.952  12.465  0.6544  0.2156 -0.5201
 5241UDC    C1157651   7.110   0.850  12.353 -0.9277 -0.3443 -0.2451
 5242UDC     C157652   8.853   1.454  19.686  0.7878  0.0206  0.9993
 5242UDC     C257653   8.968   1.432  19.596  0.6419  0.5265 -0.1669
 5242UDC     C357654   8.907   1.432  19.457  0.1892 -0.7397  0.6057
 5242UDC     C457655   8.849   1.304  19.406  0.2442  0.6002  0.6176
 5242UDC     C557656   8.784   1.327  19.267  0.9430  0.3746 -0.2127
 5242UDC     C657657   8.659   1.417  19.269  0.5924 -0.0652  0.9216
 5242UDC     C757658   8.712   1.552  19.225  0.1860  0.6885  0.4082
 5242UDC     C857659   8.650   1.679  19.286 -0.1023 -0.0046 -0.0780
 5242UDC     C957660   8.700   1.826  19.273  1.2649  0.1265  1.0865
 5242UDC    C1057661   8.652   1.881  19.133  0.8689  0.8494  0.2875
 5242UDC    C1157662   8.547   1.998  19.153 -0.4590  0.6137  0.7630
 5243UDC     C157663  19.676   1.253   0.657 -0.8936  0.1958 -1.5421
 5243UDC     C257664  19.597   1.382   0.665  0.5364  1.2510 -0.0835
 5243UDC     C357665  19.625   1.455   0.792 -0.1169 -0.6045 -0.4762
 5243UDC     C457666  19.529   1.415   0.909 -0.1193  0.2722  0.1690
 5243UDC     C557667  19.516   1.528   1.012 -0.4004  0.0141 -0.7694
 5243UDC     C657668  19.493   1.452   1.139  0.1238 -0.5502  1.4207
 5243UDC     C757669  19.622   1.419   1.203  0.3149  0.2390 -0.6003
 5243UDC     C857670  19.587   1.389   1.352  1.0926  0.3263 -0.2237
 5243UDC     C957671  19.569   1.525   1.412 -0.3959 -0.8753 -0.4144
 5243UDC    C1057672  19.511   1.493   1.551 -0.3349  0.1078 -0.8136
 5243UDC    C1157673  19.607   1.395   1.624 -0.1669 -0.9845 -0.4732
 5244UDC     C157674  12.426   2.990   2.057 -0.5034  0.6486 -0.8804
 5244UDC     C257675  12.366   3.073   2.175 -0.8042  0.9431 -1.0588
 5244UDC     C357676  12.288   2.989   2.281 -1.1439  0.7922  0.0791
 5244UDC     C457677  12.170   3.056   2.365  0.0757  0.6382 -0.2291
 5244UDC     C557678  12.059   3.077   2.266 -0.3681 -0.2958 -1.1849
 5244UDC     C657679  11.912   3.070   2.319 -0.6271 -0.0299  0.5986
 5244UDC     C757680  11.862   2.935   2.276  1.0939  0.2208 -0.4377
 5244UDC     C857681  11.731   2.917   2.345  0.9008 -0.3932  0.7104
 5244UDC     C957682  11.643   2.791   2.366  0.3205 -0.2155 -0.2800
 5244UDC    C1057683  11.516   2.835   2.431  0.3737 -0.3363  0.3337
 5244UDC    C1157684  11.543   2.855   2.579  0.6290  0.3040  0.0242
 5245UDC     C157685  10.000  12.932  14.385 -1.3652  0.5516 -0.6109
 5245UDC     C257686   9.959  12.958  14.531  0.1563 -0.2593 -0.6560
 5245UDC     C357687   9.931  12.849  14.632 -0.2350  1.0391  0.2723
 5245UDC     C457688   9.943  12.890  14.781 -0.3844 -1.1498  0.7298
 5245UDC     C557689   9.816  12.890  14.866  0.3647 -0.5810 -0.3474
 5245UDC     C657690   9.739  12.756  14.860 -0.3527 -0.0745 -0.2366
 5245UDC     C757691   9.592  12.757  14.897  0.1767  0.9610 -0.0070
 5245UDC     C857692   9.495  12.645  14.852 -0.3677  0.3116 -0.2267
 5245UDC     C957693   9.509  12.517  14.939  0.3272  0.2629  0.3245
 5245UDC    C1057694   9.393  12.418  14.937 -0.9277  0.8110  0.5338
 5245UDC    C1157695   9.309  12.451  14.807  0.0379 -0.2981 -0.2465
 5246UDC     C157696  11.140   5.716  10.292  0.5242  0.2948 -1.0988
 5246UDC     C257697  11.218   5.583  10.254 -0.2006 -0.0153  0.2235
 5246UDC     C357698  11.300   5.529  10.365 -0.0473  0.6568  0.3521
 5246UDC     C457699  11.395   5.411  10.316  0.2867 -0.5134  0.2041
 5246UDC     C557700  11.315   5.285  10.285 -0.0282  1.3669 -1.1654
 5246UDC     C657701  11.399   5.158  10.246  0.0098 -0.0984 -0.4051
 5246UDC     C757702  11.488   5.171  10.128  0.4954 -1.5172  0.5032
 5246UDC     C857703  11.478   5.073  10.012  0.6251 -0.0512 -0.9287
 5246UDC     C957704  11.341   5.012   9.985 -1.2096 -0.6158  0.2824
 5246UDC    C1057705  11.256   5.118   9.924 -0.1669  0.2844 -0.1902
 5246UDC    C1157706  11.129   5.040   9.879  1.3499 -0.2699 -0.8856
 5247UDC     C157707   9.956  15.001   8.662  1.6068  0.2148 -0.0407
 5247UDC     C257708   9.890  15.002   8.523 -1.0649  0.3382 -0.2905
 5247UDC     C357709  10.002  14.996   8.409  0.4344 -0.3712 -0.8271
 5247UDC     C457710  10.079  14.871   8.384  0.7432  0.2191 -0.7795
 5247UDC     C557711  10.144  14.875   8.253 -0.3277  0.6261  0.3734
 5247UDC     C657712  10.215  14.742   8.228 -0.4035  0.6029  0.5073
 5247UDC     C757713  10.140  14.636   8.149  0.2954  0.5665  0.5476
 5247UDC     C857714  10.232  14.515   8.106  0.0507  0.3440 -0.5924
 5247UDC     C957715  10.166  14.441   7.990  0.0535  0.6109 -1.0068
 5247UDC    C1057716  10.250  14.438   7.852 -0.2364  0.1476 -0.0154
 5247UDC    C1157717  10.244  14.574   7.780  0.2906  0.7033 -0.1679
 5248UDC     C157718  18.238   0.880  16.319 -0.0464 -0.2854 -0.0532
 5248UDC     C257719  18.379   0.908  16.263 -0.2072 -0.6492 -0.0753
 5248UDC     C357720  18.398   0.829  16.132  0.2330  0.0562 -0.7434
 5248UDC     C457721  18.530   0.865  16.076 -0.0432 -0.6340  0.6778
 5248UDC     C557722  18.660   0.861  16.159 -0.2907  1.0680  0.5435
 5248UDC     C657723  18.733   0.722  16.161  0.5127 -0.0963 -0.1201
 5248UDC     C757724  18.851   0.756  16.260  0.7091  0.4103 -0.3914
 5248UDC     C857725  18.980   0.823  16.203 -1.0135  1.3790 -0.0390
 5248UDC     C957726  19.013   0.805  16.056 -0.3547 -0.1650 -0.5998
 5248UDC    C1057727  19.132   0.877  15.999  0.5946 -0.1710 -0.1758
 5248UDC    C1157728  19.107   1.030  15.977  0.5133 -0.1952 -0.0832
 5249UDC     C157729  11.350  15.473   4.641  0.2377  0.2263  0.4573
 5249UDC     C257730  11.386  15.580   4.530  1.5244  0.8260 -0.1834
 5249UDC     C357731  11.431  15.521   4.402 -0.4028 -0.2347  0.2265
 5249UDC     C457732  11.517  15.603   4.306 -0.0547 -0.4071 -0.4207
 5249UDC     C557733  11.478  15.757   4.298 -0.2192  0.4785  1.6309
 5249UDC     C657734  11.559  15.831   4.188  1.0177  0.0982 -0.4223
 5249UDC     C757735  11.542  15.785   4.037  0.2020  0.1620 -0.1664
 5249UDC     C857736  11.635  15.860   3.936 -0.2083  0.8287  1.3323
 5249UDC     C957737  11.586  15.872   3.791 -1.0079  0.4642  0.2356
 5249UDC    C1057738  11.706  15.919   3.709  0.2693 -0.2922 -0.6695
 5249UDC    C1157739  11.810  16.019   3.770 -0.2160  0.8258 -0.5545
 5250UDC     C157740  14.416   5.670   6.334  0.2780  0.6842 -0.3047
 5250UDC     C257741  14.290   5.704   6.405 -0.5499  0.1476 -0.3838
 5250UDC     C357742  14.305   5.802   6.528  0.3079  0.1499  1.2664
 5250UDC     C457743  14.190   5.800   6.631  0.4949  0.1593 -0.7109
 5250UDC     C557744  14.050   5.853   6.574 -0.5209  0.5046  1.1421
 5250UDC     C657745  13.933   5.843   6.673  0.9253 -0.4306 -0.4747
 5250UDC     C757746  13.783   5.853   6.640  0.2955  1.3114  0.5951
 5250UDC     C857747  13.669   5.813   6.736 -0.2065 -0.5320 -0.2962
 5250UDC     C957748  13.535   5.810   6.657 -0.1470 -1.3224 -0.5163
 5250UDC    C1057749  13.430   5.728   6.737  0.5432  0.0872 -0.3250
 5250UDC    C1157750  13.414   5.598   6.660 -0.2904  0.1097 -0.6555
 5251UDC     C157751  17.074  18.249  12.195  0.4850 -1.1494  0.3607
 5251UDC     C257752  17.164  18.357  12.143 -1.0930  0.2078 -0.0626
 5251UDC     C357753  17.178  18.485  12.224  0.3913 -0.7699 -0.5917
 5251UDC     C457754  17.303  18.566  12.196  0.7681 -0.3950 -0.0204
 5251UDC     C557755  17.279  18.705  12.257  0.2618  0.5533 -0.4720
 5251UDC     C657756  17.328  18.723  12.399 -0.2485  0.1436  0.4131
 5251UDC     C757757  17.326  18.860  12.476 -0.7710 -0.4909 -0.4831
 5251UDC     C857758  17.408  18.867  12.609 -0.2170  0.0567 -0.1617
 5251UDC     C957759  17.492  18.739  12.596  0.0216 -0.6392  0.5565
 5251UDC    C1057760  17.571  18.732  12.720  0.1882  0.2110 -0.3080
 5251UDC    C1157761  17.574  18.855  12.820 -0.6690 -0.9750  0.5779
 5252UDC     C157762  18.101  12.026  16.289  0.0128  0.2590 -0.6321
 5252UDC     C257763  18.201  11.945  16.365  1.0068  0.2467  0.0101
 5252UDC     C357764  18.299  11.874  16.264  1.1355  0.9115  0.0581
 5252UDC     C457765  18.239  11.749  16.200  0.4497  0.2750  0.4604
 5252UDC     C557766  18.350  11.649  16.169 -0.0437 -0.6648  0.0379
 5252UDC     C657767  18.324  11.551  16.054 -0.4273 -1.1858 -0.6851
 5252UDC     C757768  18.190  11.471  16.059 -0.6320 -0.1797  0.5377
 5252UDC     C857769  18.181  11.388  15.931 -0.2749  0.0271  0.0559
 5252UDC     C957770  18.045  11.318  15.941 -0.1777  0.5191 -0.4493
 5252UDC    C1057771  18.032  11.210  16.051  0.3343  0.1918  0.3502
 5252UDC    C1157772  17.892  11.155  16.065 -1.5746  0.6707 -1.2264
 5253UDC     C157773   6.221  14.081   2.028  0.0055  1.4119  0.4439
 5253UDC     C257774   6.352  14.134   2.097  0.2617 -0.6001  0.4587
 5253UDC     C357775   6.316  14.205   2.227 -0.0846 -0.7729  0.1522
 5253UDC     C457776   6.234  14.331   2.204  0.4311  0.0723  0.7091
 5253UDC     C557777   6.174  14.389   2.335  0.4863 -0.2904  1.0609
 5253UDC     C657778   6.121  14.527   2.302 -0.0906  0.2260 -0.8128
 5253UDC     C757779   6.199  14.616   2.201 -0.1178  0.2611  0.6129
 5253UDC     C857780   6.303  14.718   2.261  0.2565 -0.0395 -1.0765
 5253UDC     C957781   6.369  14.778   2.143 -0.7192  0.2603  0.5124
 5253UDC    C1057782   6.467  14.888   2.188 -1.0390  0.8214  0.0833
 5253UDC    C1157783   6.560  14.875   2.314  0.3280  0.3837 -0.9267
 5254UDC     C157784   7.918  16.561  13.756 -1.3044 -0.9659  0.7520
 5254UDC     C257785   7.888  16.436  13.837 -1.3378 -0.2465 -0.1425
 5254UDC     C357786   7.737  16.428  13.843  0.6404 -1.1603 -0.4012
 5254UDC     C457787   7.682  16.321  13.757 -0.2938 -0.5526  0.6584
 5254UDC     C557788   7.739  16.181  13.793 -0.2628  0.1646  1.1481
 5254UDC     C657789   7.729  16.074  13.677 -1.2838  0.4663 -0.7918
 5254UDC     C757790   7.829  16.083  13.559  0.7227  0.6020  0.7831
 5254UDC     C857791   7.949  16.171  13.601 -0.9241  0.0767 -0.3586
 5254UDC     C957792   8.056  16.189  13.496 -0.4165  0.3165  1.0171
 5254UDC    C1057793   7.991  16.269  13.380  0.2619  0.4354  0.3405
 5254UDC    C1157794   8.108  16.310  13.290 -0.3980 -0.9390 -0.3066
 5255UDC     C157795   0.544   0.930   2.313  0.1288 -0.8940  0.7384
 5255UDC     C257796   0.586   1.040   2.421  0.2581 -0.1557  0.4704
 5255UDC     C357797   0.533   1.185   2.394  0.4248  0.8560 -0.6721
 5255UDC     C457798   0.575   1.289   2.507 -0.1882  1.8394 -0.1925
 5255UDC     C557799   0.496   1.416   2.484 -0.5248  0.4570 -0.3927
 5255UDC     C657800   0.533   1.538   2.578 -1.3291  0.4279  0.2486
 5255UDC     C757801   0.433   1.653   2.596 -0.6765 -0.2126 -0.0728
 5255UDC     C857802   0.411   1.735   2.472  0.5280 -0.4911 -0.7817
 5255UDC     C957803   0.463   1.881   2.483 -0.1175  0.9158 -0.0379
 5255UDC    C1057804   0.473   1.948   2.348  0.3867 -0.1466  0.0771
 5255UDC    C1157805   0.564   1.871   2.255 -0.6145  0.2558 -0.2896
 5256UDC     C157806   0.359   7.986  14.827  0.9273  0.8312  0.5190
 5256UDC     C257807   0.237   8.045  14.758  0.1562 -0.3515  0.1275
 5256UDC     C357808   0.236   8.041  14.598  0.3209  0.0595 -0.7331
 5256UDC     C457809   0.091   8.035  14.537 -1.0328 -1.3519  0.1560
 5256UDC     C557810   0.012   8.172  14.550  0.5104 -0.0567 -0.2295
 5256UDC     C657811   0.056   8.302  14.482  0.6433 -0.4676 -0.6201
 5256UDC     C757812  -0.021   8.436  14.519 -0.5837 -0.6507  1.0217
 5256UDC     C857813   0.036   8.532  14.621  0.0569  0.6573 -0.3744
 5256UDC     C957814  -0.057   8.656  14.647  0.0494  0.3188  0.3573
 5256UDC    C1057815   0.000   8.764  14.742  0.6397  0.0692 -1.5876
 5256UDC    C1157816  -0.101   8.878  14.758  0.4137 -0.2829  0.4775
 5257UDC     C157817   1.622   6.407  14.202 -0.6067  0.0049  0.6584
 5257UDC     C257818   1.549   6.332  14.310 -0.3275  0.8366 -0.0890
 5257UDC     C357819   1.399   6.344  14.296  0.9099  0.7009  0.1454
 5257UDC     C457820   1.362   6.485  14.355 -0.7037 -0.5027 -0.1706
 5257UDC     C557821   1.404   6.539  14.490 -0.0640  0.2348 -0.9369
 5257UDC     C657822   1.366   6.470  14.628  0.2222 -0.7567 -0.4503
 5257UDC     C757823   1.491   6.428  14.703  0.7032  1.6408 -0.1003
 5257UDC     C857824   1.583   6.543  14.734 -0.1361  0.6243 -0.1018
 5257UDC     C957825   1.534   6.655  14.824 -0.3909  1.6935 -0.6313
 5257UDC    C1057826   1.670   6.715  14.868  0.0697  0.1723 -0.0182
 5257UDC    C1157827   1.787   6.696  14.776  0.5838  1.0744  0.1637
 5258UDC     C157828   4.166  17.568   9.702 -0.0880 -0.3468  0.1296
 5258UDC     C257829   4.019  17.564   9.666  0.3755  1.3095 -0.0361
 5258UDC     C357830   3.917  17.662   9.713 -0.3270  0.0676 -0.5339
 5258UDC     C457831   3.777  17.626   9.654  0.1462 -0.4536 -0.0846
 5258UDC     C557832   3.698  17.752   9.681  0.5722  1.1371 -0.3081
 5258UDC     C657833   3.579  17.779   9.582 -0.8949  0.2504 -0.2063
 5258UDC     C757834   3.498  17.912   9.605 -0.2688 -0.3660  0.0676
 5258UDC     C857835   3.413  17.965   9.482  1.1516 -0.2520 -0.7703
 5258UDC     C957836   3.309  18.078   9.515 -0.1161 -0.2517 -0.2999
 5258UDC    C1057837   3.206  18.098   9.402  0.1205 -0.0586  0.6478
 5258UDC    C1157838   3.130  17.967   9.364 -1.0350  0.2057  1.0701
 5259UDC     C157839  17.824   2.932   2.088  0.1458 -0.1396  0.6221
 5259UDC     C257840  17.733   3.053   2.052 -0.8973  0.9112  0.0134
 5259UDC     C357841  17.797   3.168   1.979 -1.3285  1.6147 -0.1401
 5259UDC     C457842  17.842   3.125   1.839 -0.4022  0.2098 -0.2386
 5259UDC     C557843  17.927   3.242   1.799 -0.6635 -0.7432  0.6111
 5259UDC     C657844  18.006   3.299   1.917  0.0320  0.7548  0.1525
 5259UDC     C757845  18.075   3.432   1.894 -0.2134 -1.4134 -1.2318
 5259UDC     C857846  18.134   3.503   2.027 -0.0567  1.0224 -1.3412
 5259UDC     C957847  18.193   3.644   2.011 -0.7961  0.1370 -0.9794
 5259UDC    C1057848  18.093   3.750   1.950 -0.9642 -0.0004  0.4245
 5259UDC    C1157849  18.181   3.840   1.856  0.0073  0.3278 -0.6969
 5260UDC     C157850  11.569  11.944  19.114  1.3724 -0.3510 -0.0911
 5260UDC     C257851  11.446  12.028  19.072  0.2960  0.5203  0.2567
 5260UDC     C357852  11.388  12.135  19.166  1.1716  0.8368 -0.2662
 5260UDC     C457853  11.264  12.185  19.094  0.5214  0.4004  0.5327
 5260UDC     C557854  11.215  12.321  19.147  0.6413 -0.1299  0.1126
 5260UDC     C657855  11.212  12.445  19.053 -0.5947 -0.2480 -0.3119
 5260UDC     C757856  11.356  12.501  19.011  0.7412  0.1018 -0.3350
 5260UDC     C857857  11.392  12.466  18.870 -0.4787  0.6105  0.4963
 5260UDC     C957858  11.541  12.493  18.832 -0.1514  0.2899 -0.1248
 5260UDC    C1057859  11.639  12.400  18.903 -0.6037 -0.7219 -0.1155
 5260UDC    C1157860  11.693  12.291  18.812 -0.0898 -0.3474  0.0547
 5261UDC     C157861   5.986  11.926  15.204  0.1181 -0.0765  0.8292
 5261UDC     C257862   5.973  11.977  15.060  0.6498  0.3896  0.6590
 5261UDC     C357863   5.918  11.868  14.967 -0.0137 -0.1331 -0.1276
 5261UDC     C457864   5.813  11.922  14.868 -0.4847  0.8252 -0.2488
 5261UDC     C557865   5.709  11.821  14.837  0.3428 -0.5009  0.3619
 5261UDC     C657866   5.645  11.778  14.968 -0.1494  0.3641 -0.4926
 5261UDC     C757867   5.559  11.653  14.960 -0.1684 -0.1308 -0.5907
 5261UDC     C857868   5.550  11.575  14.830 -0.7765 -0.8581  0.0068
 5261UDC     C957869   5.545  11.425  14.860 -0.3791  0.1466  0.5876
 5261UDC    C1057870   5.530  11.306  14.751 -0.6617  1.3972 -0.7682
 5261UDC    C1157871   5.604  11.338  14.622 -0.1055  0.2565  0.4647
 5262UDC     C157872  19.384   2.100  19.047 -0.5651  0.0808 -0.0409
 5262UDC     C257873  19.511   2.113  18.968 -0.5338  1.1927  0.2161
 5262UDC     C357874  19.506   2.118  18.811  0.5950 -0.5259 -0.6522
 5262UDC     C457875  19.625   2.160  18.724 -0.6387 -0.4049  0.4078
 5262UDC     C557876  19.644   2.068  18.599  0.6277  0.1517  0.1083
 5262UDC     C657877  19.520   2.058  18.509 -0.0131 -0.4260  0.0108
 5262UDC     C757878  19.500   1.916  18.446 -0.2941 -0.5372  1.0445
 5262UDC     C857879  19.409   1.964  18.330 -0.4762 -0.9545  0.5044
 5262UDC     C957880  19.471   2.077  18.251 -0.4570 -0.9305  0.4422
 5262UDC    C1057881  19.385   2.065  18.116  0.4199  0.5215 -0.3163
 5262UDC    C1157882  19.369   1.934  18.035  0.6360  0.3797  0.0571
 5263UDC     C157883   2.044  11.975   0.854  0.3936  0.6780 -0.0343
 5263UDC     C257884   1.897  12.019   0.852  0.7716 -0.5658 -0.1465
 5263UDC     C357885   1.799  11.932   0.773  1.3558 -0.4456  0.3554
 5263UDC     C457886   1.653  11.946   0.816 -0.4036 -0.9390  0.0236
 5263UDC     C557887   1.531  11.903   0.728 -0.1474  0.5024 -0.6129
 5263UDC     C657888   1.495  11.754   0.731 -1.2588 -0.8761 -0.2691
 5263UDC     C757889   1.397  11.703   0.615 -0.0395 -0.2430 -0.5473
 5263UDC     C857890   1.315  11.570   0.634  0.0960  0.4183  1.2911
 5263UDC     C957891   1.191  11.554   0.544 -0.6001  0.8233  0.1258
 5263UDC    C1057892   1.136  11.408   0.527 -0.9469 -0.1628  0.5240
 5263UDC    C1157893   1.072  11.377   0.656  0.2057  0.0785 -0.0383
 5264UDC     C157894  10.896  15.511   2.327 -0.6217  1.2697  0.2253
 5264UDC     C257895  10.976  15.553   2.452  0.4715 -0.5735 -1.5432
 5264UDC     C357896  10.916  15.553   2.597  1.1635  0.0034 -0.6231
 5264UDC     C457897  10.809  15.653   2.632  1.3655  0.3066  0.6167
 5264UDC     C557898  10.850  15.803   2.659 -0.0176 -0.4213 -0.8347
 5264UDC     C657899  10.736  15.883   2.734  0.5935  0.3316  0.0188
 5264UDC     C757900  10.684  15.823   2.871  0.4411  1.3042 -0.6443
 5264UDC     C857901  10.547  15.872   2.923  0.9817  0.5086 -0.1760
 5264UDC     C957902  10.423  15.813   2.844  0.6799 -0.4026  1.1491
 5264UDC    C1057903  10.327  15.699   2.895 -0.0902  0.3209 -0.3997
 5264UDC    C1157904  10.196  15.705   2.823  0.5292 -0.1409  0.5540
 5265UDC     C157905  12.880  10.912   6.309 -0.9736  0.3214  0.4995
 5265UDC     C257906  12.917  11.057   6.317  0.5358 -1.0492  1.2246
 5265UDC     C357907  12.949  11.091   6.460 -0.7326  0.1237 -0.5397
 5265UDC     C457908  13.005  11.240   6.465  0.3617 -0.7301 -0.2233
 5265UDC     C557909  13.078  11.255   6.597 -0.3951 -0.6226  0.3192
 5265UDC     C657910  12.996  11.284   6.728  0.3460 -0.3668 -0.3719
 5265UDC     C757911  13.051  11.202   6.842 -0.4702 -0.3511  0.2459
 5265UDC     C857912  12.959  11.157   6.951  0.2487  0.6144  0.0058
 5265UDC     C957913  12.933  11.281   7.033  0.1919  0.1770 -0.3300
 5265UDC    C1057914  12.881  11.259   7.175  0.7433  0.5414  0.5499
 5265UDC    C1157915  12.751  11.185   7.152 -0.3460  0.3353 -0.6047
 5266UDC     C157916   4.244  17.628   5.961  1.3334 -0.4916  0.2206
 5266UDC     C257917   4.184  17.507   5.886 -0.1915 -0.7265  0.5339
 5266UDC     C357918   4.090  17.432   5.982  0.4089  1.1251  0.4984
 5266UDC     C457919   4.024  17.314   5.915  0.3099 -0.1747  0.8192
 5266UDC     C557920   3.936  17.251   6.028  0.2220 -0.0509  0.3341
 5266UDC     C657921   3.966  17.321   6.163  0.0953 -0.6397  0.7928
 5266UDC     C757922   3.862  17.284   6.271 -0.5159 -1.2176  1.1753
 5266UDC     C857923   3.816  17.147   6.303 -0.8332 -0.3486  0.1867
 5266UDC     C957924   3.726  17.119   6.423  0.6446 -0.0333  0.0314
 5266UDC    C1057925   3.628  17.001   6.411 -0.3945 -0.9580  0.5087
 5266UDC    C1157926   3.494  17.067   6.377 -0.3595 -0.3858  0.5366
 5267UDC     C157927  19.668  19.115  12.337  1.0082  0.7561  0.4349
 5267UDC     C257928  19.707  19.119  12.481 -0.0804 -0.7698 -0.0752
 5267UDC     C357929  19.870  19.097  12.481  0.3270  0.2381  0.3517
 5267UDC     C457930  19.916  18.982  12.389  0.0854 -0.3827  0.4129
 5267UDC     C557931  20.046  18.934  12.447 -0.5466  0.6510 -0.5936
 5267UDC     C657932  20.149  19.031  12.500  0.0502 -0.4927  1.4241
 5267UDC     C757933  20.248  18.982  12.615  0.3421  0.2553  0.0854
 5267UDC     C857934  20.164  18.887  12.709  0.3796 -0.2347 -1.2801
 5267UDC     C957935  20.159  18.907  12.864 -0.4050 -0.7910 -1.2401
 5267UDC    C1057936  20.019  18.892  12.933 -0.2759 -0.1362  0.7052
 5267UDC    C1157937  19.959  18.766  12.882 -0.0110 -0.0058  0.5112
 5268UDC     C157938  15.134   5.191   2.099 -0.0692  0.8538 -0.0760
 5268UDC     C257939  15.085   5.132   1.967 -0.6851 -0.5134 -1.2566
 5268UDC     C357940  15.207   5.064   1.898 -0.0708 -0.2010  0.5090
 5268UDC     C457941  15.206   5.034   1.751  1.2896 -0.8507 -1.2729
 5268UDC     C557942  15.164   5.164   1.675  0.0082  0.9218  0.7913
 5268UDC     C657943  15.276   5.185   1.565 -0.9457 -0.1358 -0.1229
 5268UDC     C757944  15.247   5.310   1.480 -0.1602 -0.6603 -1.0912
 5268UDC     C857945  15.110   5.304   1.413 -0.0314  0.0610  0.0365
 5268UDC     C957946  15.068   5.426   1.332 -0.6982 -0.3438 -0.4968
 5268UDC    C1057947  15.061   5.561   1.409  1.0583 -0.9471  0.0268
 5268UDC    C1157948  14.960   5.557   1.533 -0.3488 -0.3826 -0.4803
 5269UDC     C157949  12.041  12.788  15.824 -1.0733 -0.2585  0.3314
 5269UDC     C257950  11.987  12.890  15.927 -0.5118 -0.4063 -0.3574
 5269UDC     C357951  12.102  12.931  16.032 -0.2873  0.2043  0.7972
 5269UDC     C457952  12.069  13.043  16.125 -0.6450 -0.5708  0.0281
 5269UDC     C557953  12.181  13.055  16.234  0.3571  0.3695 -0.2270
 5269UDC     C657954  12.169  12.957  16.353  0.1312  0.2293 -0.5570
 5269UDC     C757955  12.278  12.974  16.463 -0.2058 -0.4256 -0.1905
 5269UDC     C857956  12.255  12.889  16.591  0.4491 -0.3347  0.2164
 5269UDC     C957957  12.232  12.949  16.730 -0.4054  1.3411  0.1526
 5269UDC    C1057958  12.344  13.027  16.794 -0.3298 -0.0994  0.0327
 5269UDC    C1157959  12.342  13.184  16.783  0.1344 -0.0876 -0.8795
 5270UDC     C157960  11.013  14.705   1.021 -1.0112 -0.4155 -1.2909
 5270UDC     C257961  10.898  14.794   0.968  0.4532  1.2533 -0.1865
 5270UDC     C357962  10.773  14.716   0.931  0.1586  1.8052 -0.2369
 5270UDC     C457963  10.642  14.743   1.006  0.5723 -0.2382 -0.3040
 5270UDC     C557964  10.539  14.842   0.936  0.1370 -0.0632  1.3828
 5270UDC     C657965  10.503  14.787   0.791 -1.2114  0.5303 -1.0849
 5270UDC     C757966  10.431  14.880   0.692 -0.3836  0.3938  0.0073
 5270UDC     C857967  10.447  14.812   0.559  0.1401  0.9681  0.6042
 5270UDC     C957968  10.588  14.749   0.542  0.3252  0.0448 -0.3682
 5270UDC    C1057969  10.641  14.778   0.396  0.8092 -0.2651  0.7443
 5270UDC    C1157970  10.600  14.674   0.287 -0.5106 -0.4996  0.5057
 5271UDC     C157971  18.457  17.876   7.179  0.3916  0.0680  0.0769
 5271UDC     C257972  18.548  17.904   7.300 -0.0085 -0.1901  0.1216
 5271UDC     C357973  18.537  17.797   7.399  0.6601  0.4450 -0.0234
 5271UDC     C457974  18.537  17.844   7.545  0.0108 -1.0403 -0.4741
 5271UDC     C557975  18.500  17.716   7.620  0.7875  0.0396  0.1461
 5271UDC     C657976  18.493  17.699   7.772 -0.4322  1.1122  0.1675
 5271UDC     C757977  18.473  17.560   7.837  0.0880  1.0508  0.1770
 5271UDC     C857978  18.440  17.576   7.982  0.1218 -0.0839  0.4981
 5271UDC     C957979  18.298  17.630   8.021  0.6346 -0.3489 -0.2552
 5271UDC    C1057980  18.293  17.683   8.165 -0.1057 -0.2010 -0.9196
 5271UDC    C1157981  18.142  17.702   8.205  0.3319  0.0287  1.3682
 5272UDC     C157982   4.641   1.712   7.715 -0.9807  0.6914  0.0661
 5272UDC     C257983   4.514   1.664   7.646  0.4850 -0.1235 -0.2835
 5272UDC     C357984   4.539   1.518   7.617  0.5646 -1.2264 -0.0488
 5272UDC     C457985   4.401   1.459   7.583 -1.0672  0.3795  0.3264
 5272UDC     C557986   4.410   1.308   7.541 -0.9705  0.1296  0.0020
 5272UDC     C657987   4.351   1.256   7.409  1.5446  0.2486  0.7731
 5272UDC     C757988   4.445   1.152   7.354 -0.6583 -1.2915 -0.5003
 5272UDC     C857989   4.593   1.178   7.397  0.0566  0.0450  0.0333
 5272UDC     C957990   4.687   1.079   7.335 -0.1806  1.0082  1.1346
 5272UDC    C1057991   4.808   1.034   7.424  1.4401  0.4246  0.3729
 5272UDC    C1157992   4.905   0.946   7.357  0.0092  0.5204 -0.3786
 5273UDC     C157993  16.570  13.364  19.752  0.2261 -1.5875 -0.9554
 5273UDC     C257994  16.670  13.482  19.742 -0.0664  0.2981  0.5797
 5273UDC     C357995  16.754  13.465  19.614  0.2609  0.1820  0.1811
 5273UDC     C457996  16.841  13.579  19.579 -0.5553  0.2203  1.0418
 5273UDC     C557997  16.934  13.552  19.461  0.9974 -1.1645 -0.1380
 5273UDC     C657998  17.034  13.440  19.474  0.0809 -0.0286 -0.6770
 5273UDC     C757999  17.117  13.416  19.345 -0.9846  0.3311 -0.1003
 5273UDC     C858000  17.247  13.329  19.384 -0.0651  1.1783 -0.4920
 5273UDC     C958001  17.363  13.402  19.449  1.2099 -0.5907 -0.9188
 5273UDC    C1058002  17.486  13.327  19.497 -0.3651  0.4615 -0.1262
 5273UDC    C1158003  17.572  13.301  19.373  0.8533 -0.2790  0.0353
 5274UDC     C158004  13.999  11.501   6.828  0.0639 -0.7796  0.7860
 5274UDC     C258005  14.078  11.377   6.795 -0.8187 -0.1919 -0.5365
 5274UDC     C358006  14.158  11.346   6.921 -0.1407  0.8741 -0.0167
 5274UDC     C458007  14.230  11.479   6.959  0.1244 -0.4141 -0.2612
 5274UDC     C558008  14.334  11.446   7.070  0.3213 -0.2147  0.2599
 5274UDC     C658009  14.466  11.511   7.012  0.2117 -0.6612 -0.8682
 5274UDC     C758010  14.593  11.486   7.098  0.9395 -0.0462 -0.6733
 5274UDC     C858011  14.624  11.589   7.207  0.0720  0.9420 -1.4437
 5274UDC     C958012  14.646  11.726   7.142  0.8898  0.2363 -1.0596
 5274UDC    C1058013  14.779  11.737   7.064  0.4769  0.3385 -0.1997
 5274UDC    C1158014  14.814  11.880   7.038 -0.1254 -0.6439 -0.1557
 5275UDC     C158015  13.161  15.731  14.865 -0.1663  0.5366 -0.5933
 5275UDC     C258016  13.121  15.871  14.921 -0.2787  0.7587 -0.8361
 5275UDC     C358017  12.968  15.897  14.915 -0.2482 -0.1992  0.0138
 5275UDC     C458018  12.907  15.800  15.020 -0.1933  0.0189  1.4226
 5275UDC     C558019  12.919  15.863  15.160 -0.6890 -0.3721 -0.3567
 5275UDC     C658020  12.865  15.756  15.253 -0.6596  0.5397 -0.9035
 5275UDC     C758021  12.877  15.818  15.396  0.8482 -1.2913  0.3644
 5275UDC     C858022  12.845  15.963  15.386 -0.1481 -0.4652  0.2756
 5275UDC     C958023  12.761  16.028  15.488  0.1641  0.5586  0.6463
 5275UDC    C1058024  12.757  16.178  15.460 -0.4836 -0.1861  0.6762
 5275UDC    C1158025  12.861  16.262  15.537 -0.8860 -1.1591 -0.1763
 5276UDC     C158026   7.927   5.125   7.897  0.6260 -0.0750  0.0743
 5276UDC     C258027   7.863   5.249   7.823 -0.4069  0.1150 -1.1950
 5276UDC     C358028   7.710   5.251   7.798  0.0641  0.3351 -0.2508
 5276UDC     C458029   7.688   5.402   7.766  1.2181  0.1364  0.2586
 5276UDC     C558030   7.796   5.457   7.665 -0.2397 -0.4837 -0.2240
 5276UDC     C658031   7.799   5.604   7.618  0.3132 -0.0900 -1.1713
 5276UDC     C758032   7.876   5.640   7.492 -0.6163 -1.4653 -0.2934
 5276UDC     C858033   8.027   5.599   7.482 -0.0879  0.3050  0.1750
 5276UDC     C958034   8.042   5.485   7.379  0.1642 -0.4591 -1.5796
 5276UDC    C1058035   8.189   5.446   7.350  0.2740 -0.2440  0.0888
 5276UDC    C1158036   8.289   5.393   7.465  0.9601  0.0282  0.4683
 5277UDC     C158037   8.279  19.625   3.951 -0.5867  0.5335  0.3498
 5277UDC     C258038   8.375  19.680   4.043 -0.4073 -0.3552  0.3015
 5277UDC     C358039   8.323  19.735   4.177  0.3368 -0.8085  0.1312
 5277UDC     C458040   8.440  19.783   4.265  0.3670  0.7114 -0.2016
 5277UDC     C558041   8.375  19.846   4.394 -0.0796  1.0813 -0.2144
 5277UDC     C658042   8.477  19.869   4.505 -0.8405 -0.7384  0.6486
 5277UDC     C758043   8.547  19.735   4.547 -0.0536 -0.2703  0.3845
 5277UDC     C858044   8.695  19.757   4.554 -0.2816  0.1173 -0.3568
 5277UDC     C958045   8.783  19.644   4.607  0.4664 -0.9797  0.0334
 5277UDC    C1058046   8.935  19.672   4.606  0.5635  0.3555 -0.3894
 5277UDC    C1158047   9.027  19.552   4.627 -0.0245 -0.0741 -1.0549
 5278UDC     C158048   5.990  14.285   7.055 -0.8284  1.8460  1.0574
 5278UDC     C258049   5.946  14.415   7.114  0.3092 -0.3068 -0.1273
 5278UDC     C358050   6.067  14.503   7.167  0.0154 -0.3719 -0.2036
 5278UDC     C458051   6.017  14.636   7.235 -0.4274 -0.0502  0.9899
 5278UDC     C558052   6.016  14.611   7.392  0.0943  0.2032 -0.6323
 5278UDC     C658053   5.953  14.723   7.473 -0.5835  0.0306  0.5677
 5278UDC     C758054   5.828  14.795   7.420 -1.3532  0.1308  0.2986
 5278UDC     C858055   5.690  14.739   7.405  1.1581  0.2327 -0.6014
 5278UDC     C958056   5.609  14.742   7.539  0.2918 -0.0304  0.5310
 5278UDC    C1058057   5.486  14.663   7.543 -0.1983  0.3075  0.9861
 5278UDC    C1158058   5.393  14.722   7.432 -0.2708 -0.2872  0.6623
 5279UDC     C158059   5.575  19.859  19.522  0.9148 -0.4548 -1.3394
 5279UDC     C258060   5.613  19.717  19.487  0.0923  0.0162  0.0430
 5279UDC     C358061   5.511  19.617  19.529  1.3109 -0.3312  0.2813
 5279UDC     C458062   5.548  19.470  19.508  0.6788 -0.5684  0.0293
 5279UDC     C558063   5.467  19.366  19.592 -0.2211 -0.6972 -0.1463
 5279UDC     C658064   5.521  19.218  19.607  0.0383  0.4584 -0.1051
 5279UDC     C758065   5.428  19.146  19.705  0.2527 -0.5960  0.9331
 5279UDC     C858066   5.503  19.031  19.770  1.1006 -0.1416 -0.2509
 5279UDC     C958067   5.525  19.021  19.926  0.2405  0.4976 -0.0772
 5279UDC    C1058068   5.652  18.936  19.955 -0.2169  0.6248 -0.2743
 5279UDC    C1158069   5.716  18.951  20.097  0.4002  0.1056  0.3539
 5280UDC     C158070   7.007  11.337   4.083 -0.7294  0.1909 -0.0310
 5280UDC     C258071   6.904  11.222   4.083  0.0008 -0.8357 -0.2278
 5280UDC     C358072   6.920  11.110   3.976 -0.5415  1.1561 -0.7314
 5280UDC     C458073   6.836  10.990   4.014  0.3030 -0.2617  1.2882
 5280UDC     C558074   6.920  10.881   4.094  0.4652 -0.5721  0.1322
 5280UDC     C658075   6.978  10.926   4.232  0.2671  0.3499  0.1727
 5280UDC     C758076   7.097  10.847   4.291 -0.3861  0.5303 -0.1880
 5280UDC     C858077   7.147  10.877   4.436  0.6129  0.0717  1.2897
 5280UDC     C958078   7.259  10.791   4.484  0.0983  0.1958  0.0191
 5280UDC    C1058079   7.250  10.730   4.621  0.5901  0.2094 -1.1173
 5280UDC    C1158080   7.343  10.615   4.650  0.2102  0.5123  0.9485
 5281UDC     C158081   2.031   2.727   4.489  0.5975 -0.1122  0.1189
 5281UDC     C258082   2.178   2.767   4.504 -0.0490 -0.7974 -0.1454
 5281UDC     C358083   2.202   2.917   4.492  0.0724 -0.2115  0.0416
 5281UDC     C458084   2.299   2.962   4.388  0.5064  0.6997  0.3967
 5281UDC     C558085   2.268   3.106   4.333  0.5118  1.3607  0.1858
 5281UDC     C658086   2.154   3.112   4.233  0.8485 -0.0560 -0.6906
 5281UDC     C758087   2.200   3.162   4.099  0.3090  0.8739 -0.1914
 5281UDC     C858088   2.083   3.180   4.007  0.0861 -0.3275  0.0111
 5281UDC     C958089   2.131   3.284   3.908 -0.3664  0.6762  0.9810
 5281UDC    C1058090   2.224   3.396   3.948  0.0138  0.0620 -1.4255
 5281UDC    C1158091   2.286   3.493   3.845  0.8233  0.7282 -1.0256
 5282UDC     C158092   5.377   8.748  10.650 -0.5022  0.6579  0.2458
 5282UDC     C258093   5.504   8.766  10.734 -0.7331  0.7911  1.0947
 5282UDC     C358094   5.492   8.867  10.842  0.1897  0.1930 -0.6122
 5282UDC     C458095   5.477   9.009  10.788 -0.2411 -0.1538 -0.5228
 5282UDC     C558096   5.477   9.112  10.900 -0.7934  0.4670 -0.2105
 5282UDC     C658097   5.372   9.219  10.877  0.1731 -0.3321  0.8871
 5282UDC     C758098   5.376   9.342  10.965 -0.3010 -0.3791  0.4759
 5282UDC     C858099   5.397   9.465  10.871 -0.1199 -0.3769 -0.9166
 5282UDC     C958100   5.341   9.595  10.943  0.3745  1.3607 -0.9242
 5282UDC    C1058101   5.332   9.718  10.857  0.1822 -1.0514 -0.1040
 5282UDC    C1158102   5.363   9.845  10.936  0.4429 -0.1037 -0.0250
 5283UDC     C158103   5.237  11.509  11.313  0.8566 -0.1819  0.1367
 5283UDC     C258104   5.089  11.470  11.311  1.0861  0.2579  0.3798
 5283UDC     C358105   5.044  11.404  11.184 -0.9336  0.1796 -0.7052
 5283UDC     C458106   5.113  11.270  11.134  0.8066  0.2777  0.7393
 5283UDC     C558107   5.101  11.237  10.985 -0.3903 -0.5903 -0.3870
 5283UDC     C658108   5.186  11.336  10.907 -0.6721  0.0377 -0.2968
 5283UDC     C758109   5.133  11.472  10.876 -0.1019 -0.3308 -0.1968
 5283UDC     C858110   5.187  11.551  10.753  0.0731 -0.4988 -0.2137
 5283UDC     C958111   5.336  11.542  10.727  0.8984  0.6801  0.0515
 5283UDC    C1058112   5.409  11.633  10.630 -0.2040  0.1060  0.2491
 5283UDC    C1158113   5.464  11.773  10.678  0.0326 -0.9409  0.2173
 5284UDC     C158114   0.116  16.722  17.348 -0.3113 -0.1809 -0.2259
 5284UDC     C258115   0.010  16.789  17.439 -0.3552 -0.1388 -0.2338
 5284UDC     C358116  -0.094  16.683  17.473  0.2775  0.3997  0.7160
 5284UDC     C458117  -0.029  16.566  17.544 -0.6454  0.5549 -0.4264
 5284UDC     C558118   0.027  16.611  17.676  0.6780  0.1539 -0.5174
 5284UDC     C658119   0.027  16.502  17.784  0.3544  0.1591 -0.1982
 5284UDC     C758120  -0.115  16.436  17.790 -0.0892 -0.8776  0.3789
 5284UDC     C858121  -0.175  16.418  17.926 -0.4085 -0.3529 -0.0303
 5284UDC     C958122  -0.205  16.273  17.941  1.2064  0.3659  0.8603
 5284UDC    C1058123  -0.329  16.199  17.891  0.1619 -0.0045 -0.9017
 5284UDC    C1158124  -0.353  16.205  17.743  0.3338 -1.0601 -0.0059
 5285UDC     C158125  12.297  12.977   6.921  0.8890  0.0927 -0.0689
 5285UDC     C258126  12.447  12.981   6.914  0.3790  0.1094 -0.1959
 5285UDC     C358127  12.506  12.884   7.016  1.0405  0.5347  0.3479
 5285UDC     C458128  12.423  12.749   7.003 -0.9182 -0.8500  0.8336
 5285UDC     C558129  12.514  12.625   7.049  0.0255 -0.1041 -0.6868
 5285UDC     C658130  12.433  12.496   7.071  0.4395 -0.2587 -0.4240
 5285UDC     C758131  12.339  12.498   7.191  0.4474  0.8307 -0.0931
 5285UDC     C858132  12.419  12.506   7.321 -0.6508  0.5023  0.3868
 5285UDC     C958133  12.343  12.512   7.457  0.2615  0.5305 -0.5108
 5285UDC    C1058134  12.271  12.647   7.444  0.1660  0.5758  0.2526
 5285UDC    C1158135  12.188  12.701   7.559 -1.0751  0.1444 -0.2511
 5286UDC     C158136  18.299  15.152   3.690  0.6552 -0.4241 -0.4794
 5286UDC     C258137  18.363  15.025   3.632  0.3581  0.1795 -0.0830
 5286UDC     C358138  18.452  15.071   3.526  0.0851  0.3016  1.2859
 5286UDC     C458139  18.529  15.197   3.575 -0.7526  0.6797 -0.3732
 5286UDC     C558140  18.573  15.301   3.473  0.0929  0.1563  0.4886
 5286UDC     C658141  18.671  15.405   3.526 -0.2157  0.2610 -0.2030
 5286UDC     C758142  18.645  15.458   3.670  0.5186  0.7317  0.7948
 5286UDC     C858143  18.754  15.557   3.700 -0.6952  0.7021 -0.0728
 5286UDC     C958144  18.871  15.480   3.770 -0.2095 -0.3317  0.3210
 5286UDC    C1058145  19.001  15.560   3.799 -0.4034 -0.3855  0.3247
 5286UDC    C1158146  19.134  15.476   3.802  0.6508 -0.0691 -0.8740
 5287UDC     C158147  13.196  19.346  14.669  0.3670  0.6833  0.5248
 5287UDC     C258148  13.072  19.430  14.702  0.5552 -0.9736 -0.6414
 5287UDC     C358149  12.997  19.509  14.595  0.2070 -1.1775  0.6078
 5287UDC     C458150  12.894  19.414  14.537  0.8842  0.3621  0.1644
 5287UDC     C558151  12.795  19.383  14.654  0.9680  0.6679  0.2532
 5287UDC     C658152  12.655  19.448  14.611  0.0614  0.5030 -0.1924
 5287UDC     C758153  12.533  19.372  14.677  0.7909 -0.5858 -0.4688
 5287UDC     C858154  12.393  19.427  14.646 -1.1991 -0.1790  0.4655
 5287UDC     C958155  12.282  19.310  14.637  0.5991 -0.3750 -0.3071
 5287UDC    C1058156  12.303  19.215  14.509  0.2924 -0.8861 -0.4891
 5287UDC    C1158157  12.217  19.093  14.515 -0.1959 -0.0812  0.1759
 5288UDC     C158158  10.711  15.282   8.315  0.0524  0.0673 -0.3642
 5288UDC     C258159  10.560  15.277   8.335 -0.3382 -0.1349 -0.3711
 5288UDC     C358160  10.497  15.368   8.223 -0.9540  0.1016  0.6901
 5288UDC     C458161  10.352  15.420   8.232  0.1888 -1.4305 -0.2398
 5288UDC     C558162  10.226  15.330   8.200 -0.6061 -0.4881 -0.5174
 5288UDC     C658163  10.088  15.372   8.257 -0.5026 -0.1748  0.8334
 5288UDC     C758164  10.031  15.495   8.187  0.1519 -0.5749  0.4714
 5288UDC     C858165   9.886  15.535   8.193 -0.8591 -0.5201  0.2408
 5288UDC     C958166   9.849  15.676   8.146  0.2702 -0.0752 -0.4868
 5288UDC    C1058167   9.857  15.791   8.248  0.1776  0.6398 -1.2870
 5288UDC    C1158168   9.864  15.926   8.180  0.7492  0.4020  0.4522
 5289UDC     C158169   4.891   0.568   0.374  0.3139 -0.2851  0.5416
 5289UDC     C258170   4.943   0.492   0.495  0.5343 -0.9152 -0.4159
 5289UDC     C358171   5.094   0.479   0.507  0.2390 -0.8511  0.3303
 5289UDC     C458172   5.159   0.571   0.606  0.3438 -0.5065  0.8091
 5289UDC     C558173   5.308   0.524   0.609 -0.3065 -0.0194 -0.4956
 5289UDC     C658174   5.393   0.572   0.733  0.1293 -0.2311  0.0294
 5289UDC     C758175   5.541   0.541   0.742 -0.3174 -0.0477  0.0477
 5289UDC     C858176   5.581   0.396   0.706 -0.1675 -1.1533  0.8560
 5289UDC     C958177   5.571   0.313   0.832 -0.3286 -0.6361  0.1383
 5289UDC    C1058178   5.615   0.172   0.827 -0.0183 -0.6754 -0.1592
 5289UDC    C1158179   5.763   0.154   0.842 -0.7320 -0.4709  0.2109
 5290UDC     C158180   7.994  19.311   4.003 -0.0056 -0.8309 -0.6559
 5290UDC     C258181   8.018  19.282   4.149 -0.0638  0.1993 -0.8928
 5290UDC     C358182   8.113  19.175   4.202 -0.1880 -0.5494  0.1101
 5290UDC     C458183   8.260  19.175   4.149  0.7642  0.6774 -0.2154
 5290UDC     C558184   8.353  19.144   4.271  0.9848  0.6593  0.5573
 5290UDC     C658185   8.492  19.172   4.222 -0.6680  0.6672 -0.3167
 5290UDC     C758186   8.602  19.133   4.329 -0.2593 -1.3827 -0.3910
 5290UDC     C858187   8.745  19.167   4.289  1.0274 -0.6573 -0.7211
 5290UDC     C958188   8.850  19.148   4.398  0.0926  0.6196 -0.1063
 5290UDC    C1058189   8.908  19.006   4.381  0.1055  0.6494 -0.0608
 5290UDC    C1158190   9.028  18.999   4.282  0.4078  0.3078  0.4243
 5291UDC     C158191  16.957  10.815   0.134  0.0053  0.8030 -0.2572
 5291UDC     C258192  16.828  10.783   0.057  0.3547  0.0204  0.7935
 5291UDC     C358193  16.756  10.907  -0.008  0.6704  0.1636 -0.0357
 5291UDC     C458194  16.684  10.882  -0.143  0.8210 -0.7922  1.8138
 5291UDC     C558195  16.548  10.803  -0.145  0.9491  0.6821  0.0093
 5291UDC     C658196  16.478  10.765  -0.285  0.2928 -0.4216  0.0851
 5291UDC     C758197  16.351  10.684  -0.262 -0.7046 -0.0860 -0.5164
 5291UDC     C858198  16.260  10.756  -0.167 -0.1578  0.5219 -0.4238
 5291UDC     C958199  16.144  10.841  -0.224 -0.4031 -0.5848  0.5674
 5291UDC    C1058200  16.061  10.752  -0.313  1.1561  0.1174  0.6364
 5291UDC    C1158201  15.968  10.640  -0.267 -0.3445 -1.1563 -0.0921
 5292UDC     C158202  13.940   8.582  18.662 -0.1024  0.8695 -0.0112
 5292UDC     C258203  14.014   8.576  18.802 -1.2044 -0.2593 -0.7426
 5292UDC     C358204  14.164   8.594  18.798 -0.3727  0.1062  0.1737
 5292UDC     C458205  14.214   8.726  18.742  0.1625  0.5780 -1.0825
 5292UDC     C558206  14.353   8.794  18.773  0.0079 -0.2763 -0.5796
 5292UDC     C658207  14.378   8.931  18.700  0.6427  0.4828 -0.0623
 5292UDC     C758208  14.504   9.010  18.741  1.4899 -0.9792  0.3819
 5292UDC     C858209  14.468   9.105  18.855 -0.9576  0.1014  0.1845
 5292UDC     C958210  14.363   9.212  18.822 -0.1410  0.6012  0.7295
 5292UDC    C1058211  14.404   9.333  18.736 -0.6982 -0.5499  0.1838
 5292UDC    C1158212  14.271   9.396  18.700  0.3109  0.4516  0.0173
 5293UDC     C158213   7.323  18.123  16.550  0.5624  0.0713  0.5930
 5293UDC     C258214   7.183  18.183  16.527  0.0753  0.6405 -0.1431
 5293UDC     C358215   7.130  18.147  16.390 -0.1282 -0.7230  0.1156
 5293UDC     C458216   7.035  18.243  16.317 -0.0511  0.3563 -0.6599
 5293UDC     C558217   6.975  18.193  16.182  1.4247 -0.2489  0.0126
 5293UDC     C658218   6.829  18.231  16.149 -1.3899 -0.4328  0.0707
 5293UDC     C758219   6.729  18.163  16.237  0.6020 -0.2127  0.4404
 5293UDC     C858220   6.581  18.200  16.240  0.3672 -0.3728  0.1965
 5293UDC     C958221   6.491  18.142  16.355 -0.0126  0.6665 -0.5215
 5293UDC    C1058222   6.348  18.187  16.339  0.4962 -1.8410  0.3505
 5293UDC    C1158223   6.250  18.175  16.460  0.6394  0.6426 -1.0912
 5294UDC     C158224   4.981   5.866   4.520  0.0005  0.4306 -0.8726
 5294UDC     C258225   5.116   5.818   4.584  0.1554 -0.2242 -0.8961
 5294UDC     C358226   5.120   5.667   4.603  0.7014  0.3636  0.0644
 5294UDC     C458227   5.158   5.592   4.480  0.0228 -0.7664  0.2482
 5294UDC     C558228   5.142   5.436   4.509  0.2080 -0.8931 -0.6435
 5294UDC     C658229   4.999   5.406   4.555 -0.9034 -0.5325  0.4173
 5294UDC     C758230   4.929   5.345   4.434  1.3330 -0.4881 -0.5223
 5294UDC     C858231   4.979   5.229   4.353  0.3469  0.2311 -0.1655
 5294UDC     C958232   4.896   5.202   4.222 -1.0362  0.7789  1.1306
 5294UDC    C1058233   4.964   5.111   4.112 -0.1361 -0.1288 -0.0909
 5294UDC    C1158234   4.984   4.970   4.153 -0.2059  0.9064 -0.2788
 5295UDC     C158235   4.377   6.319  12.328 -0.5612  0.7379 -0.2366
 5295UDC     C258236   4.345   6.364  12.186  0.1631 -0.2605 -0.2509
 5295UDC     C358237   4.259   6.490  12.189  1.3631 -0.0135  0.1037
 5295UDC     C458238   4.333   6.623  12.231 -0.1879  1.0322  0.7633
 5295UDC     C558239   4.285   6.636  12.376 -0.2814 -0.2916 -0.2128
 5295UDC     C658240   4.364   6.753  12.442 -0.1046  0.0705  0.2328
 5295UDC     C758241   4.301   6.806  12.574 -0.9115 -0.7718  0.6756
 5295UDC     C858242   4.368   6.910  12.658 -0.2875  0.3903 -0.0369
 5295UDC     C958243   4.480   6.863  12.750 -0.0005  0.1760  0.2498
 5295UDC    C1058244   4.529   6.976  12.834 -0.5589  0.4340 -0.9251
 5295UDC    C1158245   4.637   6.932  12.931 -0.5297 -0.1781 -0.0377
 5296UDC     C158246   5.158  14.702   4.364 -0.3572 -0.7414  0.3023
 5296UDC     C258247   5.213  14.697   4.223  0.3779 -0.1087  0.2338
 5296UDC     C358248   5.348  14.752   4.176  0.4541 -0.2036 -0.2128
 5296UDC     C458249   5.402  14.701   4.040 -0.2623 -0.5868 -0.5333
 5296UDC     C558250   5.538  14.762   4.022  0.0471  0.3143 -0.0793
 5296UDC     C658251   5.611  14.692   3.905 -0.2992 -0.4203  0.4315
 5296UDC     C758252   5.750  14.736   3.851 -0.6729  0.3275 -1.1418
 5296UDC     C858253   5.783  14.622   3.750 -0.8297  1.3175 -0.3699
 5296UDC     C958254   5.914  14.635   3.665  0.0951  0.1020 -0.2506
 5296UDC    C1058255   5.902  14.764   3.590 -0.4540  0.5573  1.1538
 5296UDC    C1158256   6.023  14.856   3.603 -0.7893 -0.4611 -0.7512
 5297UDC     C158257   5.908   6.128   0.081 -0.0162  0.2326 -0.5844
 5297UDC     C258258   5.787   6.052   0.149  1.0867 -0.3203 -0.1669
 5297UDC     C358259   5.833   5.904   0.123  0.3039 -0.7607 -0.5838
 5297UDC     C458260   5.733   5.788   0.145  0.1448 -0.6272  0.3237
 5297UDC     C558261   5.819   5.664   0.119  0.2764  0.0057  0.1994
 5297UDC     C658262   5.968   5.683   0.093  0.1047  0.2491  0.5054
 5297UDC     C758263   6.029   5.544   0.049  1.3421  0.6622 -0.5304
 5297UDC     C858264   6.171   5.591   0.015  0.1441  0.9707 -0.3370
 5297UDC     C958265   6.188   5.714  -0.072  1.5116 -0.5274 -0.0588
 5297UDC    C1058266   6.216   5.683  -0.217  0.8254  0.9971 -0.5470
 5297UDC    C1158267   6.267   5.791  -0.312 -0.8492  0.2343  0.2173
 5298UDC     C158268   8.695   6.420  16.026 -0.1253 -0.6366 -0.5543
 5298UDC     C258269   8.755   6.278  16.001  0.3031 -0.0471 -0.1249
 5298UDC     C358270   8.854   6.276  15.880  0.2861 -0.3248 -0.3563
 5298UDC     C458271   8.991   6.226  15.934 -0.3945 -0.2907 -0.0556
 5298UDC     C558272   9.075   6.125  15.849 -0.4688 -0.1992  0.0187
 5298UDC     C658273   9.168   6.027  15.928 -0.3541  0.2463 -1.2959
 5298UDC     C758274   9.222   5.900  15.849 -0.0915 -0.3367 -0.1480
 5298UDC     C858275   9.144   5.775  15.892  1.2576 -0.0170  0.2264
 5298UDC     C958276   9.175   5.661  15.804 -0.8297  0.1030 -0.2674
 5298UDC    C1058277   9.251   5.562  15.897 -0.0227 -1.5288  0.1303
 5298UDC    C1158278   9.145   5.467  15.967 -0.1026  1.3375  0.5898
 5299UDC     C158279   8.446   9.506  12.170 -1.0279  0.1952  0.6810
 5299UDC     C258280   8.539   9.415  12.255  0.6413  0.6754  0.3064
 5299UDC     C358281   8.677   9.466  12.283 -0.4006  0.4642 -0.2942
 5299UDC     C458282   8.809   9.396  12.247  0.1332  1.9920 -0.4882
 5299UDC     C558283   8.829   9.257  12.315 -0.3146 -0.1261  0.3000
 5299UDC     C658284   8.957   9.180  12.273  0.6855 -0.1624 -1.0166
 5299UDC     C758285   8.927   9.028  12.243 -0.0111  0.4251  0.2126
 5299UDC     C858286   8.896   8.942  12.357  0.6956  0.3372  0.6907
 5299UDC     C958287   8.749   8.894  12.359  0.1044 -0.1609 -0.1481
 5299UDC    C1058288   8.680   8.902  12.498  0.2032  0.0028 -0.4005
 5299UDC    C1158289   8.601   9.039  12.524 -0.8677  0.4316 -0.1725
 5300UDC     C158290   7.092  18.390   0.536  1.3527  0.0772 -0.8934
 5300UDC     C258291   6.986  18.450   0.643 -0.0867 -0.1629 -1.4751
 5300UDC     C358292   7.061  18.520   0.757 -0.7176  0.1523  0.1777
 5300UDC     C458293   6.957  18.583   0.846 -0.2386 -0.7439 -0.2329
 5300UDC     C558294   6.994  18.638   0.986 -0.2560 -1.0040 -0.0896
 5300UDC     C658295   6.951  18.545   1.099  0.6256  0.1122  0.6842
 5300UDC     C758296   7.020  18.552   1.235  0.5091 -0.7070 -1.1176
 5300UDC     C858297   6.923  18.526   1.344 -0.2458 -0.4185 -0.2104
 5300UDC     C958298   6.988  18.568   1.474  1.0722  0.8781 -0.8479
 5300UDC    C1058299   6.927  18.698   1.540 -1.0770 -0.4276  1.0726
 5300UDC    C1158300   6.988  18.736   1.668  0.5328 -0.1281  0.3823
 5301UDC     C158301   0.093   6.314  19.310  0.8803  0.0166  0.1009
 5301UDC     C258302  -0.061   6.308  19.345 -0.0623  0.5131  1.1157
 5301UDC     C358303  -0.131   6.295  19.207 -1.1766  0.2637  0.5465
 5301UDC     C458304  -0.097   6.409  19.114 -0.0197  0.1539  0.2546
 5301UDC     C558305  -0.171   6.539  19.133 -1.0682  1.2089 -0.7882
 5301UDC     C658306  -0.158   6.659  19.041  0.2318 -0.7961  0.0847
 5301UDC     C758307  -0.255   6.771  19.083 -0.6952 -0.8536  0.0240
 5301UDC     C858308  -0.396   6.726  19.035 -1.4074 -0.0020  0.1727
 5301UDC     C958309  -0.461   6.815  18.933  0.2208  0.4883 -0.0895
 5301UDC    C1058310  -0.375   6.869  18.820 -0.1766 -0.4976 -0.3512
 5301UDC    C1158311  -0.336   6.770  18.712  0.0760 -1.0231  0.1373
 5302UDC     C158312  15.119   1.677   5.480 -0.2614  0.1112  0.4348
 5302UDC     C258313  15.066   1.574   5.386  0.4344 -0.2202  0.8903
 5302UDC     C358314  15.100   1.423   5.408  0.6189 -1.0371 -1.0551
 5302UDC     C458315  15.065   1.329   5.299 -0.5040  0.3555 -1.3549
 5302UDC     C558316  15.135   1.191   5.316  1.2945  0.2737  0.1386
 5302UDC     C658317  15.135   1.114   5.183  0.1882  0.6196 -0.3053
 5302UDC     C758318  15.002   1.043   5.150 -0.2481 -0.8146 -0.0855
 5302UDC     C858319  14.983   0.897   5.187 -0.7421 -0.0142 -0.0325
 5302UDC     C958320  14.871   0.815   5.104 -0.8995  0.3001  0.2527
 5302UDC    C1058321  14.726   0.818   5.152  0.8761 -0.8765  0.2657
 5302UDC    C1158322  14.675   0.746   5.281 -0.0773  0.6647  0.0230
 5303UDC     C158323   7.857   7.130   4.218  0.5895 -1.1369 -0.2551
 5303UDC     C258324   7.731   7.131   4.305  0.1099 -0.4754 -0.5796
 5303UDC     C358325   7.748   7.205   4.439 -0.6189  0.0704  0.8456
 5303UDC     C458326   7.832   7.155   4.552  0.4345  0.0003  0.1615
 5303UDC     C558327   7.793   7.215   4.682 -0.2785  0.0338  0.1808
 5303UDC     C658328   7.921   7.188   4.761  0.9348 -0.3993 -0.1472
 5303UDC     C758329   7.948   7.302   4.857  0.2342 -0.7453  0.9029
 5303UDC     C858330   8.087   7.357   4.830  0.6753  0.3867  1.0092
 5303UDC     C958331   8.107   7.504   4.879 -0.3722 -0.5020  0.4544
 5303UDC    C1058332   8.251   7.540   4.840  0.4337 -0.8378 -0.1289
 5303UDC    C1158333   8.299   7.688   4.847 -0.1437 -0.2545  0.1532
 5304UDC     C158334   8.915  18.798  13.526  0.1364  0.3916 -0.4542
 5304UDC     C258335   8.780  18.768  13.592 -0.2883  0.2210 -0.0430
 5304UDC     C358336   8.790  18.802  13.743 -0.2460  0.2314  0.4591
 5304UDC     C458337   8.695  18.716  13.839  0.6163 -0.1098  0.5153
 5304UDC     C558338   8.572  18.799  13.886  0.4594  0.3438 -0.2688
 5304UDC     C658339   8.432  18.721  13.877 -0.1213  0.5545 -0.1528
 5304UDC     C758340   8.349  18.766  13.750 -0.2150 -0.2659 -0.6884
 5304UDC     C858341   8.199  18.787  13.764 -0.2762  1.0453 -0.1926
 5304UDC     C958342   8.164  18.930  13.729 -0.8957 -0.0740 -0.8553
 5304UDC    C1058343   8.028  18.985  13.764  0.1968  0.4517  0.2072
 5304UDC    C1158344   7.925  18.886  13.701  0.4089 -0.0388 -1.1146
 5305UDC     C158345  14.310  19.012   6.684  0.5795  0.1531  0.4909
 5305UDC     C258346  14.365  19.104   6.573  0.1847  0.5185 -0.3351
 5305UDC     C358347  14.291  19.117   6.443  0.5039 -0.7055  0.6537
 5305UDC     C458348  14.320  19.260   6.399  0.3290 -0.0465  0.7374
 5305UDC     C558349  14.235  19.392   6.410  0.2356 -0.8498 -0.2065
 5305UDC     C658350  14.310  19.511   6.361  0.0183  0.0875 -0.5040
 5305UDC     C758351  14.289  19.639   6.450 -0.2675  0.1959  0.5702
 5305UDC     C858352  14.377  19.766   6.403  0.7639  0.9252 -0.3645
 5305UDC     C958353  14.514  19.716   6.373 -1.0949 -0.7283  1.0845
 5305UDC    C1058354  14.601  19.842   6.349 -0.7766 -0.4897 -0.8032
 5305UDC    C1158355  14.547  19.941   6.238 -0.3468 -0.2851 -0.3711
 5306UDC     C158356   2.252  19.453   2.876 -0.4478 -0.7005 -0.8817
 5306UDC     C258357   2.250  19.337   2.778  0.6115  0.3579 -0.5796
 5306UDC     C358358   2.237  19.193   2.830  0.2431 -0.0260 -0.5198
 5306UDC     C458359   2.270  19.073   2.732 -0.3842 -0.6519  0.3412
 5306UDC     C558360   2.179  18.956   2.762 -0.0166 -0.9600  0.3165
 5306UDC     C658361   2.112  18.889   2.642  0.2672 -0.0536  0.0948
 5306UDC     C758362   2.053  18.984   2.531  0.1981  0.6256  0.8807
 5306UDC     C858363   1.966  18.903   2.432  1.4848 -0.0150 -1.2797
 5306UDC     C958364   2.052  18.802   2.359 -1.0925  0.0308  0.6206
 5306UDC    C1058365   1.994  18.699   2.256 -0.2661 -0.2732 -0.1819
 5306UDC    C1158366   1.863  18.627   2.300 -0.2037  0.4455  0.7001
 5307UDC     C158367   5.704   2.854   7.559  0.3980  0.3425  0.0519
 5307UDC     C258368   5.806   2.803   7.451  1.1436 -0.2121 -0.0104
 5307UDC     C358369   5.736   2.731   7.332 -0.0685  0.4123  0.5083
 5307UDC     C458370   5.829   2.706   7.214 -0.3503  0.6277 -0.3577
 5307UDC     C558371   5.758   2.675   7.085 -0.1888 -0.1318  0.5918
 5307UDC     C658372   5.809   2.544   7.011  0.0319 -1.0825 -0.6414
 5307UDC     C758373   5.757   2.418   7.077 -0.0823 -0.1892 -0.1799
 5307UDC     C858374   5.736   2.307   6.969 -0.9738 -0.4374  0.0140
 5307UDC     C958375   5.726   2.157   7.010 -0.3589 -0.1285 -0.8709
 5307UDC    C1058376   5.861   2.123   7.072 -1.1363  0.3697 -0.2031
 5307UDC    C1158377   5.857   2.013   7.177 -0.8919 -0.8534  0.6459
 5308UDC     C158378  19.629   3.563  18.135  0.6370 -0.1041  0.1940
 5308UDC     C258379  19.511   3.597  18.224  0.2504  0.2463 -0.2289
 5308UDC     C358380  19.432   3.469  18.258 -0.3179 -0.4890  0.2537
 5308UDC     C458381  19.379   3.378  18.150  0.1786  1.1615 -0.2412
 5308UDC     C558382  19.225   3.362  18.169 -0.4997  0.8419 -0.0195
 5308UDC     C658383  19.156   3.271  18.061  0.0916 -0.0561 -1.2926
 5308UDC     C758384  19.208   3.119  18.072  0.5048 -0.6511  0.2313
 5308UDC     C858385  19.132   3.024  17.984 -1.1371 -1.0038  0.6166
 5308UDC     C958386  19.185   2.893  18.022  0.3680  0.3633 -0.3254
 5308UDC    C1058387  19.331   2.868  17.988 -0.7451 -0.4826  0.7262
 5308UDC    C1158388  19.321   2.821  17.846  0.4253  0.3904 -0.5074
 5309UDC     C158389   2.528  19.615   7.021 -0.2146  0.7080  0.2961
 5309UDC     C258390   2.560  19.472   7.062  0.0216  0.4200  0.3659
 5309UDC     C358391   2.446  19.410   7.159  0.6122  0.0089 -0.4217
 5309UDC     C458392   2.383  19.507   7.265  0.8054 -0.3199  0.2067
 5309UDC     C558393   2.230  19.517   7.252  0.5995 -0.0018  0.2320
 5309UDC     C658394   2.150  19.648   7.248  0.2846  0.0197 -0.3768
 5309UDC     C758395   2.189  19.761   7.156 -0.4335  0.1577 -0.2707
 5309UDC     C858396   2.059  19.843   7.112 -1.3197 -0.3877 -1.0165
 5309UDC     C958397   1.981  19.763   7.006  0.1488 -0.3244 -0.5629
 5309UDC    C1058398   1.842  19.828   6.988  0.2581  1.2648 -0.1057
 5309UDC    C1158399   1.788  19.875   6.852  0.1843 -0.2509  1.3828
 5310UDC     C158400  10.433   9.183   0.529  0.5976  0.0135 -0.8206
 5310UDC     C258401  10.452   9.340   0.533  0.4417  0.5750 -1.4015
 5310UDC     C358402  10.573   9.401   0.598  0.2332 -0.0257 -0.3819
 5310UDC     C458403  10.655   9.510   0.525  0.3155 -0.7922  0.8745
 5310UDC     C558404  10.571   9.591   0.420 -0.5761 -0.4232  0.2852
 5310UDC     C658405  10.640   9.709   0.344 -0.1617 -0.7248  0.4299
 5310UDC     C758406  10.609   9.731   0.190 -0.9631  0.3998  0.4066
 5310UDC     C858407  10.720   9.810   0.123  0.2706 -0.6142  0.2874
 5310UDC     C958408  10.723   9.813  -0.035 -0.1022  1.0276 -0.5055
 5310UDC    C1058409  10.830   9.872  -0.120 -0.9699 -0.0058 -0.1624
 5310UDC    C1158410  10.890   9.771  -0.216 -0.3218  0.6655 -0.2480
 5311UDC     C158411  10.191  14.181   0.614 -0.0938 -0.6739 -0.0365
 5311UDC     C258412  10.052  14.196   0.547 -0.3901  1.0922  0.7000
 5311UDC     C358413  10.046  14.121   0.410 -0.0424 -0.0184 -0.3701
 5311UDC     C458414   9.948  14.194   0.316  0.1633  0.2103 -0.3764
 5311UDC     C558415   9.804  14.171   0.349 -0.5227 -0.5232 -0.6337
 5311UDC     C658416   9.780  14.024   0.390 -0.0035 -0.2788 -0.3033
 5311UDC     C758417   9.634  13.996   0.443 -0.2014  0.7507  0.6520
 5311UDC     C858418   9.665  13.851   0.486 -0.3825  0.0266 -0.0775
 5311UDC     C958419   9.796  13.802   0.425 -0.5322  2.3230 -0.3187
 5311UDC    C1058420   9.786  13.670   0.347 -0.1059  0.2446  0.6089
 5311UDC    C1158421   9.917  13.606   0.291  0.3359 -0.3283  0.1619
 5312UDC     C158422  15.717   3.259   6.827  0.6061 -0.4200 -0.8640
 5312UDC     C258423  15.776   3.400   6.794  0.1900 -0.2858  0.0042
 5312UDC     C358424  15.915   3.441   6.845 -0.3919 -0.3135 -1.3379
 5312UDC     C458425  15.928   3.596   6.838 -0.3875 -0.6528  0.1485
 5312UDC     C558426  15.968   3.646   6.696 -0.0907 -0.0042 -1.1157
 5312UDC     C658427  16.057   3.555   6.608  0.5230  1.0617 -0.3732
 5312UDC     C758428  16.097   3.623   6.482 -1.1314  1.2949 -0.4403
 5312UDC     C858429  16.167   3.520   6.389  0.0376 -0.4713 -0.1032
 5312UDC     C958430  16.181   3.544   6.239 -0.7381 -0.1384 -0.3173
 5312UDC    C1058431  16.224   3.417   6.173 -0.3990 -0.2858  0.8979
 5312UDC    C1158432  16.117   3.311   6.212  0.4527  0.6389 -0.0023
 5313UDC     C158433  18.251   0.178   6.804 -0.7685 -0.1064 -0.8185
 5313UDC     C258434  18.209   0.056   6.733 -0.1941 -0.1392  0.0621
 5313UDC     C358435  18.078   0.068   6.674  1.0577  1.0621 -0.2010
 5313UDC     C458436  18.039  -0.014   6.552 -0.4897  0.3855  0.4614
 5313UDC     C558437  17.885  -0.009   6.527 -0.2274 -0.3838  0.6259
 5313UDC     C658438  17.859   0.036   6.376 -0.6629  1.1419 -0.1835
 5313UDC     C758439  17.922  -0.077   6.294 -1.1251 -0.4433  0.6232
 5313UDC     C858440  18.037  -0.053   6.193  0.1674  0.2168  0.1523
 5313UDC     C958441  18.084  -0.168   6.109 -0.2235  0.5307  0.9127
 5313UDC    C1058442  18.159  -0.118   5.989 -0.6962 -0.0523  0.1804
 5313UDC    C1158443  18.195  -0.238   5.889  0.4863 -0.6518  1.0199
 5314UDC     C158444   4.282   3.305   3.498 -0.0793 -0.6321  0.7104
 5314UDC     C258445   4.306   3.172   3.418  0.3926  0.7487 -0.9601
 5314UDC     C358446   4.263   3.040   3.495  0.7540  0.3882 -0.8642
 5314UDC     C458447   4.129   2.967   3.462  1.3001  1.1463 -0.3424
 5314UDC     C558448   4.129   2.892   3.329  0.2995  0.9817  0.2097
 5314UDC     C658449   4.185   2.750   3.328 -0.0671  0.1458  0.0981
 5314UDC     C758450   4.182   2.693   3.186 -1.2113  0.1542  0.6168
 5314UDC     C858451   4.286   2.760   3.086 -0.8923 -1.2496 -0.9822
 5314UDC     C958452   4.425   2.784   3.153  0.4983  0.6836 -0.1345
 5314UDC    C1058453   4.513   2.890   3.092 -0.6270 -0.0262 -0.1400
 5314UDC    C1158454   4.582   2.832   2.964  0.7130  0.3694 -0.5936
 5315UDC     C158455  13.535  11.969  12.787 -0.1984  0.5066 -0.5925
 5315UDC     C258456  13.476  11.843  12.855 -0.3324 -1.3792  0.9257
 5315UDC     C358457  13.414  11.775  12.733  0.6507  0.9587  0.4322
 5315UDC     C458458  13.303  11.673  12.728 -0.0310 -0.6650  0.6575
 5315UDC     C558459  13.228  11.665  12.592  0.2600  0.5051 -0.3739
 5315UDC     C658460  13.101  11.577  12.582 -0.1535  0.9027 -0.1775
 5315UDC     C758461  12.989  11.616  12.488  0.3061  0.6422 -0.2579
 5315UDC     C858462  12.890  11.498  12.477 -0.2945  0.2604  0.7819
 5315UDC     C958463  12.888  11.406  12.353  0.1269 -0.6766  0.9355
 5315UDC    C1058464  13.014  11.311  12.326  0.7378  0.1707  0.0049
 5315UDC    C1158465  13.036  11.204  12.435  0.1710  1.0796 -0.3233
 5316UDC     C158466  19.215  12.643   9.725 -1.9827  0.2838 -0.4600
 5316UDC     C258467  19.248  12.738   9.611 -0.3508 -0.4007  0.0655
 5316UDC     C358468  19.150  12.853   9.618  0.0917 -0.3252 -0.4456
 5316UDC     C458469  19.207  12.996   9.591  0.1006 -0.2874  0.7957
 5316UDC     C558470  19.103  13.107   9.565 -0.0650 -1.3031  0.5138
 5316UDC     C658471  19.165  13.251   9.589 -0.2530  0.6608  0.1982
 5316UDC     C758472  19.077  13.375   9.579 -0.0118  0.8177  0.1862
 5316UDC     C858473  19.160  13.498   9.582  0.2792  0.0583 -0.0825
 5316UDC     C958474  19.082  13.624   9.541  0.1920  0.5050 -0.7293
 5316UDC    C1058475  18.995  13.674   9.656  0.2852  0.2379  0.9431
 5316UDC    C1158476  18.985  13.828   9.676 -0.1602  0.2067  1.3876
 5317UDC     C158477   2.911  15.930   6.089  0.6926 -0.1304  0.0221
 5317UDC     C258478   2.926  15.820   5.981 -0.2901 -0.8869 -0.2461
 5317UDC     C358479   2.787  15.776   5.929 -0.8214 -0.0893  0.0968
 5317UDC     C458480   2.777  15.679   5.815 -0.4739  0.0149  0.2695
 5317UDC     C558481   2.635  15.611   5.782  1.0814 -0.8839 -0.7116
 5317UDC     C658482   2.640  15.533   5.655 -0.4817 -0.4279 -0.1719
 5317UDC     C758483   2.515  15.462   5.610 -0.6001  0.1806 -1.1494
 5317UDC     C858484   2.501  15.318   5.653 -0.8462 -0.0321  1.0650
 5317UDC     C958485   2.372  15.258   5.592  0.7447  0.2305 -0.8326
 5317UDC    C1058486   2.374  15.115   5.653  1.9346  0.0838  0.0351
 5317UDC    C1158487   2.307  15.015   5.558 -0.2033  0.0234 -0.4820
 5318UDC     C158488  15.255  10.078  16.429  0.0124 -0.9337 -0.7276
 5318UDC     C258489  15.398  10.080  16.468 -0.6472  1.5736 -0.4919
 5318UDC     C358490  15.429   9.972  16.566 -0.0318  0.9120 -0.4108
 5318UDC     C458491  15.328   9.860  16.558  1.5281 -0.7755 -0.4266
 5318UDC     C558492  15.335   9.759  16.671  0.2290  0.1951 -1.1080
 5318UDC     C658493  15.262   9.793  16.801 -0.5314 -1.0278  0.0138
 5318UDC     C758494  15.107   9.770  16.798 -0.8216 -0.0866 -0.2404
 5318UDC     C858495  15.064   9.623  16.791  0.1124  0.2972 -0.7524
 5318UDC     C958496  14.913   9.598  16.794 -0.0515 -0.2178 -0.6062
 5318UDC    C1058497  14.870   9.468  16.731  0.8382  0.9637  0.3038
 5318UDC    C1158498  14.930   9.438  16.598 -0.0511  0.3705 -0.9948
 5319UDC     C158499   3.054  11.076  17.217  0.4555 -0.1932  0.5097
 5319UDC     C258500   2.907  11.082  17.158 -0.0615  0.3763 -0.4554
 5319UDC     C358501   2.918  11.103  17.009  0.1480  0.4287  1.0546
 5319UDC     C458502   2.800  11.165  16.941 -0.6012  0.5969  0.3507
 5319UDC     C558503   2.671  11.097  16.960  0.2617  1.2534  0.6004
 5319UDC     C658504   2.581  11.108  16.832  1.0570  0.4280 -0.2048
 5319UDC     C758505   2.544  11.255  16.816 -0.1159  0.6119  0.5409
 5319UDC     C858506   2.477  11.296  16.684 -0.5723  0.3195  0.2342
 5319UDC     C958507   2.558  11.269  16.549  0.7375  0.4015  0.9958
 5319UDC    C1058508   2.683  11.356  16.508 -0.4947 -0.4330  0.5603
 5319UDC    C1158509   2.810  11.342  16.595  0.2717 -0.4852  0.5145
 5320UDC     C158510   9.069   6.570  14.148  0.6075  1.0912 -0.0970
 5320UDC     C258511   9.108   6.673  14.256  2.0605  0.1682 -0.3095
 5320UDC     C358512   9.045   6.806  14.267  0.5565 -1.1826 -0.0147
 5320UDC     C458513   9.120   6.912  14.195  0.3122 -0.8134 -0.7424
 5320UDC     C558514   9.207   6.996  14.285 -1.0997 -1.4103  0.2090
 5320UDC     C658515   9.287   7.118  14.227 -0.5789 -0.9283 -0.5119
 5320UDC     C758516   9.369   7.068  14.108  0.1836  0.3656 -0.2617
 5320UDC     C858517   9.437   7.192  14.043 -0.2807  0.6109 -0.9219
 5320UDC     C958518   9.342   7.312  14.018  0.5096 -0.5251 -0.1662
 5320UDC    C1058519   9.421   7.440  13.967  0.7416 -0.8541 -0.1278
 5320UDC    C1158520   9.347   7.573  13.937  0.0139  0.6458 -0.1613
 5321UDC     C158521  17.770   9.553  16.643  0.2110 -0.2602 -0.1010
 5321UDC     C258522  17.767   9.397  16.638  0.4335  0.0222 -1.7998
 5321UDC     C358523  17.887   9.335  16.563 -0.4366 -0.1154  0.8336
 5321UDC     C458524  17.891   9.179  16.562 -0.1327 -0.2219 -0.8257
 5321UDC     C558525  17.954   9.123  16.692  0.3312  0.5883 -1.4963
 5321UDC     C658526  18.100   9.133  16.701  0.1861  0.2048  0.7302
 5321UDC     C758527  18.143   9.058  16.575  0.1911 -1.1221  0.5565
 5321UDC     C858528  18.293   9.012  16.578  0.0357  0.5532  0.4027
 5321UDC     C958529  18.347   8.961  16.438  0.6259  0.1545 -1.4914
 5321UDC    C1058530  18.493   8.908  16.452 -0.5465  0.0181  0.3974
 5321UDC    C1158531  18.577   8.859  16.333 -0.2017 -0.5021  0.3879
 5322UDC     C158532   1.772  12.650  11.041 -0.4522 -0.0019  0.0305
 5322UDC     C258533   1.711  12.760  11.120  0.5548  0.0402  1.4044
 5322UDC     C358534   1.778  12.816  11.243 -0.4363  0.4133 -1.3945
 5322UDC     C458535   1.737  12.960  11.267  0.9450 -0.4144 -0.3424
 5322UDC     C558536   1.619  12.971  11.364 -0.9608 -1.0942  0.4519
 5322UDC     C658537   1.637  13.106  11.436 -0.5156 -0.0015 -0.5812
 5322UDC     C758538   1.569  13.105  11.581 -0.3737  1.2377  0.5428
 5322UDC     C858539   1.624  13.022  11.693  0.7931 -0.2582 -0.4351
 5322UDC     C958540   1.606  13.092  11.836 -0.0778 -0.1524  0.8740
 5322UDC    C1058541   1.693  13.030  11.940 -0.0501 -0.3045 -0.2685
 5322UDC    C1158542   1.754  13.150  12.014 -0.6666 -0.0803  0.0084
 5323UDC     C158543  16.791   1.261  16.563  0.0994 -0.4425  0.1266
 5323UDC     C258544  16.641   1.257  16.547 -0.1371  0.8308 -0.7382
 5323UDC     C358545  16.550   1.179  16.652 -0.0303 -0.4706  0.1677
 5323UDC     C458546  16.615   1.049  16.675  0.3350  0.6217 -0.2448
 5323UDC     C558547  16.556   0.955  16.780  0.5294 -0.5024 -1.1511
 5323UDC     C658548  16.557   1.029  16.917 -0.6924 -0.4429 -0.2081
 5323UDC     C758549  16.476   0.932  17.010 -0.8733 -0.6566 -0.5117
 5323UDC     C858550  16.421   0.806  16.941 -0.1892 -0.8387  0.1395
 5323UDC     C958551  16.299   0.746  17.015 -0.0130 -0.2308 -0.4121
 5323UDC    C1058552  16.308   0.771  17.178  0.7080 -0.6421 -0.3801
 5323UDC    C1158553  16.170   0.784  17.240 -0.6347 -0.0264 -0.0365
 5324UDC     C158554  10.448  12.797  18.300  0.3134  0.2227  0.9252
 5324UDC     C258555  10.487  12.783  18.151  0.2497  0.0752 -0.6719
 5324UDC     C358556  10.526  12.915  18.100 -0.5982 -0.4919  0.9958
 5324UDC     C458557  10.615  12.969  18.212  0.7737 -0.3572 -0.1304
 5324UDC     C558558  10.762  12.940  18.188  0.7324  0.6110  0.2933
 5324UDC     C658559  10.841  12.936  18.052 -0.5752 -0.1958  0.9250
 5324UDC     C758560  10.973  12.866  18.094  1.5551  0.1462 -1.0194
 5324UDC     C858561  11.002  12.777  17.978  0.0946  0.5292 -0.4831
 5324UDC     C958562  11.021  12.630  18.028 -0.1501 -0.4042 -0.2215
 5324UDC    C1058563  11.101  12.542  17.938 -0.0012  0.9296  0.3260
 5324UDC    C1158564  11.095  12.390  17.970 -0.9274  0.2399 -0.5413
 5325UDC     C158565   6.483  17.002  10.575  0.0958  0.7546  0.2116
 5325UDC     C258566   6.420  17.051  10.441 -0.2386 -0.2212  1.1968
 5325UDC     C358567   6.505  17.159  10.365  0.2706  1.0528 -0.2547
 5325UDC     C458568   6.443  17.226  10.243 -0.8725 -1.2703  0.2928
 5325UDC     C558569   6.459  17.138  10.128  0.1539 -0.1528  0.6238
 5325UDC     C658570   6.425  17.196   9.990  0.2934 -0.3219 -0.2715
 5325UDC     C758571   6.314  17.130   9.896 -0.4860  0.6448 -0.3600
 5325UDC     C858572   6.184  17.100   9.967  1.4216 -0.1201  0.2947
 5325UDC     C958573   6.079  17.022   9.882  0.4140 -0.7170 -0.4232
 5325UDC    C1058574   5.989  17.114   9.784  0.5887 -0.6530  0.6547
 5325UDC    C1158575   5.856  17.145   9.853  0.3324 -0.0052 -0.2482
 5326UDC     C158576  10.745   7.013  15.196 -0.2801 -0.3061  0.7830
 5326UDC     C258577  10.755   7.065  15.045 -0.3966  0.8456 -0.6448
 5326UDC     C358578  10.653   7.155  14.992 -0.0897 -0.2882 -0.1461
 5326UDC     C458579  10.542   7.072  14.922 -0.4737 -1.0879  0.2829
 5326UDC     C558580  10.440   7.178  14.880 -0.4449 -0.6760 -0.2084
 5326UDC     C658581  10.357   7.235  15.002 -0.8210 -0.0019  0.2188
 5326UDC     C758582  10.236   7.155  15.054 -0.2997 -0.1445  1.2292
 5326UDC     C858583  10.109   7.121  14.971  0.8152 -1.0532  0.4983
 5326UDC     C958584   9.993   7.058  15.066 -0.9450  0.0800 -0.0869
 5326UDC    C1058585  10.014   6.905  15.089 -0.6272  0.3827  0.5355
 5326UDC    C1158586   9.890   6.825  15.045  0.4152 -0.6194 -0.0544
 5327UDC     C158587  19.812  18.016  17.967 -0.0756  0.4978 -0.5719
 5327UDC     C258588  19.925  18.122  18.003 -0.0266 -0.4690 -0.8990
 5327UDC     C358589  20.066  18.093  17.964 -0.1345 -0.0746  0.0899
 5327UDC     C458590  20.141  18.179  17.858 -1.2567 -0.5132 -1.5906
 5327UDC     C558591  20.303  18.189  17.864 -0.0222  0.8802  0.5274
 5327UDC     C658592  20.375  18.288  17.779 -0.2828 -0.2258  0.8317
 5327UDC     C758593  20.494  18.236  17.700 -0.2747  0.5024  0.9785
 5327UDC     C858594  20.509  18.316  17.569 -0.2855 -0.1804 -0.4431
 5327UDC     C958595  20.604  18.228  17.477 -0.2410  0.6355 -0.9893
 5327UDC    C1058596  20.755  18.220  17.526  0.9388 -0.8571 -0.4390
 5327UDC    C1158597  20.838  18.133  17.440 -0.6895  0.1364  0.6786
 5328UDC     C158598   6.748   3.729  18.498 -0.4913 -0.8114  0.0762
 5328UDC     C258599   6.818   3.851  18.424 -0.6954  0.5505 -0.1797
 5328UDC     C358600   6.841   3.833  18.271  0.4914 -0.9193 -0.5241
 5328UDC     C458601   6.774   3.706  18.237  1.0396  0.5125  0.0990
 5328UDC     C558602   6.785   3.682  18.085 -0.5556  0.5284  1.7734
 5328UDC     C658603   6.660   3.724  18.007  0.4027 -0.0796  0.0474
 5328UDC     C758604   6.530   3.654  18.052 -0.6014 -0.2162  0.3194
 5328UDC     C858605   6.395   3.707  18.004  0.8285  0.2825 -0.3892
 5328UDC     C958606   6.368   3.708  17.852  0.5900 -0.1347  0.3007
 5328UDC    C1058607   6.213   3.731  17.822  0.1958 -0.2250 -0.1832
 5328UDC    C1158608   6.123   3.623  17.875  0.2138  0.2185 -0.6472
 5329UDC     C158609   1.714   0.373  13.025  0.0284  1.3307 -0.8331
 5329UDC     C258610   1.723   0.343  13.172  0.0870  0.4273  0.7467
 5329UDC     C358611   1.623   0.400  13.275 -0.0231 -0.2093  1.3636
 5329UDC     C458612   1.695   0.404  13.405  0.1256  0.2127 -0.4200
 5329UDC     C558613   1.599   0.462  13.511 -0.1544  0.0369  0.5850
 5329UDC     C658614   1.471   0.383  13.529 -0.4032 -0.2773  0.6464
 5329UDC     C758615   1.498   0.277  13.634 -0.1376  0.7171 -0.5921
 5329UDC     C858616   1.524   0.331  13.777 -0.4420  0.4996 -0.0248
 5329UDC     C958617   1.581   0.236  13.890 -0.0995  0.8123  0.2787
 5329UDC    C1058618   1.625   0.300  14.018  0.9005 -0.1048  0.9934
 5329UDC    C1158619   1.628   0.195  14.133 -0.4998 -1.1709 -0.6549
 5330UDC     C158620   8.594   9.574  13.397  0.8882 -0.6176 -0.6050
 5330UDC     C258621   8.471   9.546  13.309  0.3022  0.1016  0.6639
 5330UDC     C358622   8.448   9.632  13.177  1.1462  0.3908 -0.3784
 5330UDC     C458623   8.350   9.598  13.061  0.4367 -0.7593  0.4677
 5330UDC     C558624   8.409   9.493  12.969 -0.3925  0.1962 -0.1252
 5330UDC     C658625   8.315   9.419  12.865 -0.0847 -0.6648 -0.3570
 5330UDC     C758626   8.405   9.362  12.756  0.2123  0.8774  0.0522
 5330UDC     C858627   8.325   9.273  12.659 -0.4604  0.7743  0.0062
 5330UDC     C958628   8.203   9.206  12.721 -0.4656 -0.2475  1.4067
 5330UDC    C1058629   8.153   9.093  12.632 -0.5247 -0.3444  0.1471
 5330UDC    C1158630   8.026   9.035  12.695  0.2092  0.3740  0.1040
 5331UDC     C158631   2.831  18.205   5.306  0.3347  0.5255  1.3346
 5331UDC     C258632   2.904  18.315   5.225 -0.3856  0.3424  0.6413
 5331UDC     C358633   2.904  18.274   5.069 -0.5664 -0.0019 -0.9189
 5331UDC     C458634   2.886  18.390   4.964  0.0634 -0.1944 -1.4683
 5331UDC     C558635   2.835  18.326   4.827 -0.7985 -1.8368 -0.3868
 5331UDC     C658636   2.683  18.311   4.836  0.0879  0.6959 -0.1970
 5331UDC     C758637   2.622  18.199   4.742 -0.6695  0.4130  0.4388
 5331UDC     C858638   2.658  18.202   4.599 -1.1656 -0.4159  0.0425
 5331UDC     C958639   2.591  18.107   4.499  0.7541 -0.3450 -0.0950
 5331UDC    C1058640   2.667  17.977   4.494 -0.6220  0.3688 -0.1378
 5331UDC    C1158641   2.631  17.912   4.363  0.8444 -0.7541  0.1483
 5332UDC     C158642  15.525   1.751  10.238  0.3682 -0.2001 -0.3695
 5332UDC     C258643  15.545   1.884  10.309 -1.2594 -0.4738 -0.0249
 5332UDC     C358644  15.674   1.964  10.279  0.5404 -0.1598  0.3858
 5332UDC     C458645  15.703   2.076  10.376 -0.3998 -0.5994 -1.3048
 5332UDC     C558646  15.760   2.201  10.314 -0.0936 -0.0560  0.0482
 5332UDC     C658647  15.673   2.302  10.232 -0.9854  0.3627  0.2282
 5332UDC     C758648  15.756   2.385  10.133 -0.4743  0.8647 -0.3419
 5332UDC     C858649  15.819   2.508  10.189 -1.3481  0.0725 -0.0188
 5332UDC     C958650  15.719   2.619  10.221  0.7323 -0.4314  0.3455
 5332UDC    C1058651  15.771   2.709  10.335 -0.7648 -0.5502  1.1676
 5332UDC    C1158652  15.718   2.855  10.323 -0.1993 -1.4237  0.6211
 5333UDC     C158653   8.398   3.580   5.743  0.0533 -0.4634 -0.1075
 5333UDC     C258654   8.437   3.697   5.654 -0.3064  0.7192  0.2366
 5333UDC     C358655   8.477   3.822   5.726 -0.1788 -0.5603 -0.1820
 5333UDC     C458656   8.524   3.928   5.626  0.2038 -1.0217 -0.3957
 5333UDC     C558657   8.625   4.025   5.679 -0.5761 -0.1260  0.3739
 5333UDC     C658658   8.669   4.143   5.589 -0.2380  0.7235 -0.4245
 5333UDC     C758659   8.549   4.230   5.579  0.2459  0.3567 -0.0801
 5333UDC     C858660   8.578   4.323   5.459 -0.2377  0.4868 -0.8022
 5333UDC     C958661   8.589   4.280   5.313 -0.5992 -0.0101  0.3034
 5333UDC    C1058662   8.468   4.188   5.277  0.3140  0.1648 -0.3183
 5333UDC    C1158663   8.455   4.120   5.137  0.4081  0.3719 -0.4150
 5334UDC     C158664   0.436   6.320   7.045 -1.1341  1.1470 -0.0981
 5334UDC     C258665   0.325   6.260   7.131 -0.1698 -0.3844  1.2978
 5334UDC     C358666   0.201   6.340   7.107  0.3063 -1.0402 -0.5475
 5334UDC     C458667   0.115   6.372   7.239 -1.6980  0.7032 -0.4961
 5334UDC     C558668   0.214   6.432   7.351  0.0918  0.5924  0.0651
 5334UDC     C658669   0.113   6.443   7.465  0.0083  0.1354  0.8127
 5334UDC     C758670  -0.001   6.340   7.468 -2.5379  0.1144  0.3567
 5334UDC     C858671  -0.019   6.318   7.625 -1.3431 -0.5597  0.7607
 5334UDC     C958672   0.053   6.195   7.676  0.2530 -0.1927 -0.1566
 5334UDC    C1058673   0.154   6.224   7.790 -0.5609  0.7602 -0.4180
 5334UDC    C1158674   0.217   6.094   7.863 -0.0956  0.5223 -0.5571
 5335UDC     C158675   6.254   8.814  19.836  0.5744  0.4799  0.1621
 5335UDC     C258676   6.398   8.771  19.868 -0.7050 -0.1679  1.2174
 5335UDC     C358677   6.504   8.839  19.781 -0.1770 -0.2243 -0.1172
 5335UDC     C458678   6.655   8.817  19.799 -0.1616  0.8097 -0.0537
 5335UDC     C558679   6.736   8.935  19.745  0.4907 -0.2820 -0.4370
 5335UDC     C658680   6.885   8.924  19.788  0.2010  0.9476  1.6105
 5335UDC     C758681   6.958   9.041  19.728  0.6078 -0.1989 -0.5892
 5335UDC     C858682   7.108   9.010  19.710 -0.0031  0.7319 -1.2104
 5335UDC     C958683   7.197   9.096  19.810 -0.4596  0.3954  0.3939
 5335UDC    C1058684   7.343   9.043  19.792 -0.8212  0.8910  0.7281
 5335UDC    C1158685   7.437   9.029  19.915  0.1600 -1.0468  0.6488
 5336UDC     C158686   1.160   9.924   9.855  0.2400  0.1279  1.2160
 5336UDC     C258687   1.075   9.815   9.915  1.0453 -0.9346 -0.6308
 5336UDC     C358688   1.043   9.823  10.067 -1.2139 -0.4899 -0.6963
 5336UDC     C458689   0.975   9.697  10.132  0.4928 -0.0223 -0.5207
 5336UDC     C558690   1.025   9.663  10.269 -0.9596  0.1183 -0.7757
 5336UDC     C658691   1.170   9.621  10.235  1.3004  0.0977 -0.2398
 5336UDC     C758692   1.264   9.614  10.359 -0.2748  0.9790  1.0873
 5336UDC     C858693   1.404   9.563  10.310 -0.5209  0.5483  1.0285
 5336UDC     C958694   1.506   9.519  10.413  0.3938  0.1180  0.0528
 5336UDC    C1058695   1.420   9.441  10.517  0.4953  0.4637  1.1073
 5336UDC    C1158696   1.499   9.410  10.649 -0.0653  0.7011  0.1350
 5337UDC     C158697  10.683   8.420   3.875 -0.4246  0.2196  1.1158
 5337UDC     C258698  10.819   8.422   3.796 -0.2018 -0.5558 -0.0842
 5337UDC     C358699  10.940   8.450   3.880  0.3256 -0.6735  0.1653
 5337UDC     C458700  11.069   8.466   3.789  0.7062  0.9031  0.2492
 5337UDC     C558701  11.023   8.451   3.642 -0.6339  0.1628 -0.8687
 5337UDC     C658702  11.069   8.320   3.582  0.9485 -0.5840  0.3945
 5337UDC     C758703  11.034   8.294   3.433  0.2149 -0.5159 -0.3023
 5337UDC     C858704  11.073   8.158   3.392  0.1328  0.3790  0.5428
 5337UDC     C958705  11.225   8.122   3.399 -0.2458 -0.1262  0.3247
 5337UDC    C1058706  11.278   7.978   3.375  0.6179 -0.0623 -0.6424
 5337UDC    C1158707  11.268   7.937   3.235 -0.2244  0.9905  1.7658
 5338UDC     C158708   4.975  13.590   0.018  0.2481  0.8964  0.4397
 5338UDC     C258709   5.125  13.629  -0.006  0.5634 -1.2098 -0.2011
 5338UDC     C358710   5.191  13.702   0.119 -0.4811  0.5804  1.5433
 5338UDC     C458711   5.189  13.599   0.229  0.0187  0.2485 -0.1571
 5338UDC     C558712   5.275  13.652   0.338  0.3175  0.1246  0.2148
 5338UDC     C658713   5.227  13.785   0.403 -0.5531  0.9476 -0.2841
 5338UDC     C758714   5.331  13.825   0.514  1.2710  0.3437  1.1039
 5338UDC     C858715   5.479  13.796   0.502 -0.5559 -0.9445  0.7929
 5338UDC     C958716   5.563  13.858   0.617  0.1572  0.4791  0.9352
 5338UDC    C1058717   5.519  13.798   0.761  0.3310  0.1421  0.8858
 5338UDC    C1158718   5.574  13.660   0.812 -0.3278 -0.0565 -0.7642
 5339UDC     C158719  17.728  11.220  14.881  0.9125  0.9125 -0.6407
 5339UDC     C258720  17.696  11.120  14.996  1.2510  0.9312 -0.3891
 5339UDC     C358721  17.573  11.024  14.997  1.1961  0.6855 -0.1380
 5339UDC     C458722  17.454  11.106  14.962  0.5551  0.5468  0.8247
 5339UDC     C558723  17.363  11.018  14.877 -0.8317 -0.8131 -0.2589
 5339UDC     C658724  17.390  10.965  14.735  0.4244 -0.8085  0.4302
 5339UDC     C758725  17.276  10.973  14.638  0.6834  0.4115  0.5018
 5339UDC     C858726  17.203  10.836  14.627  0.0124 -0.6804  0.4396
 5339UDC     C958727  17.099  10.838  14.521  0.9498 -0.3121 -0.5798
 5339UDC    C1058728  17.160  10.829  14.377 -0.0572 -0.3262  0.1563
 5339UDC    C1158729  17.035  10.839  14.298  0.9990  0.0496 -1.2310
 5340UDC     C158730  12.523   5.461   4.379  0.4095 -0.3987 -0.1298
 5340UDC     C258731  12.515   5.617   4.388  0.6313 -0.6208  0.7459
 5340UDC     C358732  12.425   5.691   4.289  1.0185  0.1996  0.1287
 5340UDC     C458733  12.278   5.631   4.314  0.0969  1.0507  0.5588
 5340UDC     C558734  12.228   5.676   4.454 -0.0765 -0.0746 -0.5465
 5340UDC     C658735  12.082   5.642   4.467  1.7407  0.7959 -0.3822
 5340UDC     C758736  12.021   5.659   4.611  0.2696  0.7323  0.3796
 5340UDC     C858737  12.042   5.789   4.684 -0.3510  0.4070 -0.8145
 5340UDC     C958738  12.012   5.803   4.838  0.7260  0.6360  1.6640
 5340UDC    C1058739  12.137   5.758   4.905 -0.7957 -0.8776  0.5150
 5340UDC    C1158740  12.116   5.750   5.053 -0.8507  0.4552 -0.2823
 5341UDC     C158741   4.511  16.058   1.206 -0.4148  0.1765 -0.6089
 5341UDC     C258742   4.524  15.907   1.234  0.6624  0.0384 -0.1023
 5341UDC     C358743   4.569  15.869   1.380  0.4011 -0.5460 -0.6040
 5341UDC     C458744   4.582  15.719   1.394 -0.0425  0.3550 -1.2077
 5341UDC     C558745   4.494  15.632   1.305  0.6684  1.1302  0.8397
 5341UDC     C658746   4.500  15.478   1.327  0.7439 -0.2394  0.9968
 5341UDC     C758747   4.393  15.416   1.230  0.8305  0.9608 -0.5676
 5341UDC     C858748   4.253  15.460   1.263 -0.2319 -1.4968 -0.4107
 5341UDC     C958749   4.143  15.412   1.175 -0.3384 -0.9217  0.7065
 5341UDC    C1058750   4.161  15.266   1.137 -0.6545 -1.1307 -0.1792
 5341UDC    C1158751   4.096  15.203   1.012  1.0443  0.1160  0.8264
 5342UDC     C158752  12.151  14.555   2.868 -0.0923 -1.0653  0.5169
 5342UDC     C258753  12.198  14.491   2.999  1.6639  1.2969  0.3014
 5342UDC     C358754  12.091  14.427   3.090  0.8487  1.0023  0.3604
 5342UDC     C458755  11.982  14.517   3.154  0.4074  0.7301  1.0898
 5342UDC     C558756  11.843  14.472   3.212  0.6695 -0.7194  0.1693
 5342UDC     C658757  11.764  14.402   3.097 -0.9266 -0.9929 -0.0107
 5342UDC     C758758  11.630  14.350   3.151  0.0558  0.0677  0.4975
 5342UDC     C858759  11.527  14.289   3.059  0.0354  0.6561  1.0261
 5342UDC     C958760  11.439  14.379   2.971  0.6798 -0.3460 -0.4373
 5342UDC    C1058761  11.333  14.299   2.884 -0.3916 -0.7453  0.7307
 5342UDC    C1158762  11.220  14.388   2.812 -0.5415  0.3478  0.3912
 5343UDC     C158763   9.277   9.299   5.950 -1.2304 -0.1663 -0.0370
 5343UDC     C258764   9.172   9.231   5.866  1.3179 -0.2719  0.8054
 5343UDC     C358765   9.179   9.183   5.715 -1.0940  0.4812 -0.3492
 5343UDC     C458766   9.142   9.277   5.606 -0.9187 -0.0426 -0.2492
 5343UDC     C558767   8.997   9.272   5.574  0.7310 -0.1948 -0.5713
 5343UDC     C658768   8.943   9.152   5.490 -0.2279 -0.1332  0.2092
 5343UDC     C758769   8.816   9.193   5.414  0.1793 -0.2631  0.0174
 5343UDC     C858770   8.714   9.087   5.349  0.5907  0.0590 -1.5743
 5343UDC     C958771   8.757   8.951   5.395  0.5819  0.0317 -1.1779
 5343UDC    C1058772   8.823   8.872   5.281 -1.8046 -0.2212  0.1634
 5343UDC    C1158773   8.968   8.905   5.265  0.7057  0.7782 -0.4459
 5344UDC     C158774  11.442   8.711  10.742  0.7360  1.4418 -0.1301
 5344UDC     C258775  11.481   8.841  10.814 -0.6941 -0.2730 -0.0881
 5344UDC     C358776  11.643   8.857  10.821  0.5583  0.2054 -0.6618
 5344UDC     C458777  11.702   8.875  10.677 -0.7484 -0.2961 -1.6614
 5344UDC     C558778  11.853   8.912  10.679 -0.2739 -0.3410 -0.1180
 5344UDC     C658779  11.914   8.901  10.535  0.0856  0.1867 -0.4661
 5344UDC     C758780  12.064   8.920  10.543  0.0735  1.4225 -1.2531
 5344UDC     C858781  12.135   8.936  10.414  0.4620  0.7969  0.1600
 5344UDC     C958782  12.236   9.045  10.416 -0.1263  0.4107  0.6256
 5344UDC    C1058783  12.207   9.181  10.347  0.7573 -0.1281  0.4994
 5344UDC    C1158784  12.308   9.264  10.274  0.6910  0.2917 -0.4722
 5345UDC     C158785   4.917   8.035   2.408 -0.2450 -0.7613 -0.0494
 5345UDC     C258786   4.868   8.180   2.371  0.3718 -0.3503 -0.5888
 5345UDC     C358787   4.975   8.248   2.277 -0.3487  0.4844  0.0390
 5345UDC     C458788   5.083   8.325   2.351 -0.3054  0.2735  0.9887
 5345UDC     C558789   5.179   8.412   2.272  0.7677  0.1154  0.0875
 5345UDC     C658790   5.286   8.448   2.376 -0.4173  0.7088 -1.3677
 5345UDC     C758791   5.394   8.342   2.391  1.0040  0.2446 -0.9930
 5345UDC     C858792   5.502   8.354   2.505 -0.0493  0.1996  0.9176
 5345UDC     C958793   5.576   8.216   2.502  0.3325  0.2896  1.0201
 5345UDC    C1058794   5.683   8.200   2.614 -0.3965  0.2104 -1.3924
 5345UDC    C1158795   5.621   8.220   2.761 -0.7498 -0.4559 -1.2016
 5346UDC     C158796   9.100  11.366  14.679 -0.4451  1.4373 -0.0824
 5346UDC     C258797   9.153  11.482  14.593 -0.3764 -0.2415 -0.3974
 5346UDC     C358798   9.089  11.618  14.609  0.6553 -0.4196  0.4046
 5346UDC     C458799   8.945  11.611  14.538 -1.1436  0.7061 -0.9099
 5346UDC     C558800   8.879  11.751  14.568 -0.7569 -1.1885 -0.9014
 5346UDC     C658801   8.844  11.768  14.722 -0.2921  1.4239  0.2497
 5346UDC     C758802   8.797  11.903  14.767  0.5754 -1.3229  1.2182
 5346UDC     C858803   8.872  11.939  14.895 -0.5643 -0.7916  0.5341
 5346UDC     C958804   9.027  11.970  14.887 -0.1257 -0.3120  0.7410
 5346UDC    C1058805   9.091  11.984  15.029  0.0939 -0.1309  0.2795
 5346UDC    C1158806   9.246  11.956  15.021  0.4296 -0.0912 -0.4524
 5347UDC     C158807  12.286   7.990   5.344 -0.8091 -0.7576 -0.5911
 5347UDC     C258808  12.367   7.961   5.467  0.6189 -0.0316 -0.0142
 5347UDC     C358809  12.288   7.996   5.592  0.2419  0.1592  0.1191
 5347UDC     C458810  12.146   7.946   5.573  0.6954 -0.1754  0.2104
 5347UDC     C558811  12.059   7.977   5.697 -0.2878 -0.5968  0.7368
 5347UDC     C658812  11.961   7.870   5.747  0.2465  0.0896  0.3024
 5347UDC     C758813  11.907   7.921   5.885  0.7772 -1.2156  0.3770
 5347UDC     C858814  12.017   7.906   5.990 -0.1425 -0.0772  0.6449
 5347UDC     C958815  11.994   7.951   6.142  0.5868  0.0181  0.9249
 5347UDC    C1058816  12.106   7.900   6.231  0.5576 -0.4910  0.1606
 5347UDC    C1158817  12.073   7.760   6.279  0.0864 -0.3156  1.1168
 5348UDC     C158818  16.533   3.551   3.205 -0.7159  0.0659 -0.4873
 5348UDC     C258819  16.692   3.558   3.227  1.0822 -1.1146 -0.0550
 5348UDC     C358820  16.772   3.476   3.130 -0.5999 -1.0574  0.5041
 5348UDC     C458821  16.773   3.336   3.200 -0.3312 -0.1890  0.2811
 5348UDC     C558822  16.789   3.220   3.095 -0.2612  0.1353  0.0771
 5348UDC     C658823  16.765   3.071   3.143  0.6695 -0.0720 -0.1404
 5348UDC     C758824  16.626   3.033   3.202  0.2228 -0.0693  0.3631
 5348UDC     C858825  16.509   3.038   3.100 -0.4768  0.4642 -0.8462
 5348UDC     C958826  16.372   3.008   3.143  0.7377  0.1361 -1.0522
 5348UDC    C1058827  16.270   3.031   3.032 -0.5745  0.1365 -0.1653
 5348UDC    C1158828  16.259   3.157   2.954 -0.2287  1.0956  0.4433
 5349UDC     C158829   1.013   2.793  17.831  0.7302 -0.7368 -0.7075
 5349UDC     C258830   1.069   2.939  17.855  1.0050 -0.4801  0.1230
 5349UDC     C358831   0.976   3.026  17.944 -0.1222 -0.3639  0.6743
 5349UDC     C458832   0.832   3.025  17.899  0.3427 -0.0619  0.2259
 5349UDC     C558833   0.743   3.096  18.000 -0.4807 -0.8721 -0.1452
 5349UDC     C658834   0.709   2.991  18.102  0.2104  0.0988 -0.4640
 5349UDC     C758835   0.644   3.041  18.228 -0.8548  0.1862 -0.5890
 5349UDC     C858836   0.740   3.057  18.352  0.1872  0.4450 -0.2913
 5349UDC     C958837   0.803   2.928  18.411  0.6379 -0.7468 -0.0655
 5349UDC    C1058838   0.950   2.914  18.369  1.2304 -0.2788 -0.3023
 5349UDC    C1158839   0.988   2.766  18.391 -0.6568 -0.1038  0.6548
 5350UDC     C158840  11.409  16.962   1.274 -0.3149  0.5352 -0.5420
 5350UDC     C258841  11.279  17.038   1.291  0.0075 -0.7904  0.1950
 5350UDC     C358842  11.314  17.148   1.395  0.6516  0.4288  0.0065
 5350UDC     C458843  11.297  17.287   1.327  0.5024  1.1653  0.2190
 5350UDC     C558844  11.335  17.313   1.187 -0.3990  0.1046 -0.6618
 5350UDC     C658845  11.294  17.452   1.144  0.2308 -0.1152  0.7967
 5350UDC     C758846  11.366  17.474   1.009 -1.0244  0.0478 -0.1590
 5350UDC     C858847  11.524  17.485   1.014  0.3148 -0.2892  0.3152
 5350UDC     C958848  11.572  17.554   1.143  0.6126  0.3364  0.1978
 5350UDC    C1058849  11.538  17.703   1.131 -0.9956  0.0091  1.3465
 5350UDC    C1158850  11.587  17.793   1.249 -0.3156  0.3672  0.3108
 5351UDC     C158851  13.511  15.550  12.840  0.1733 -0.1081  0.4955
 5351UDC     C258852  13.668  15.541  12.846  0.2166 -0.8419  0.8051
 5351UDC     C358853  13.742  15.545  12.712 -0.7294 -1.2643  0.9742
 5351UDC     C458854  13.887  15.487  12.707  0.0307 -0.1694  0.7002
 5351UDC     C558855  13.969  15.557  12.809  0.4600  0.1154 -0.1457
 5351UDC     C658856  14.111  15.491  12.806  1.4529  0.4371  0.0122
 5351UDC     C758857  14.136  15.360  12.878  0.5634  0.0958  0.5222
 5351UDC     C858858  14.156  15.368  13.030  0.9358 -0.6453 -0.9025
 5351UDC     C958859  14.254  15.258  13.076 -0.1736 -0.3603 -0.5896
 5351UDC    C1058860  14.247  15.119  13.016  1.2554 -1.1149 -0.1209
 5351UDC    C1158861  14.328  15.028  13.109  0.1440 -0.1257  0.9213
 5352UDC     C158862  14.287  13.692  17.958  0.5374 -0.3883  0.1536
 5352UDC     C258863  14.163  13.645  18.039  0.0950 -0.4433  0.1616
 5352UDC     C358864  14.170  13.722  18.173 -0.3814  0.2546 -0.0588
 5352UDC     C458865  14.308  13.728  18.236 -1.0974  0.4221 -0.1735
 5352UDC     C558866  14.304  13.731  18.399  0.1833 -1.0203  0.0538
 5352UDC     C658867  14.436  13.729  18.469 -0.5416 -0.7050 -0.2455
 5352UDC     C758868  14.495  13.873  18.465 -0.1854 -0.1191  0.8424
 5352UDC     C858869  14.553  13.877  18.610  0.2684 -0.1075 -0.2201
 5352UDC     C958870  14.671  13.778  18.625  0.4850  0.4119 -0.9464
 5352UDC    C1058871  14.812  13.825  18.587 -0.8908 -0.3310  0.7299
 5352UDC    C1158872  14.904  13.713  18.542  0.0685 -0.1358  0.0821
 5353UDC     C158873  19.795   4.131   2.822 -0.0671 -0.0397 -1.3099
 5353UDC     C258874  19.879   4.123   2.954 -0.8376 -0.5427 -0.7086
 5353UDC     C358875  20.004   4.205   2.945  0.4453 -0.1771 -0.0147
 5353UDC     C458876  20.046   4.230   3.091 -0.2796 -0.0027 -0.5419
 5353UDC     C558877  20.058   4.373   3.145 -0.5347  0.1445 -0.5663
 5353UDC     C658878  19.937   4.448   3.196 -0.3788 -0.2987 -0.1349
 5353UDC     C758879  19.890   4.401   3.338 -0.9525 -0.5406  0.5244
 5353UDC     C858880  19.741   4.415   3.344 -0.7519  0.3996 -1.1127
 5353UDC     C958881  19.656   4.350   3.238  1.6704  1.2795 -0.2972
 5353UDC    C1058882  19.522   4.416   3.220  0.0431  0.5949 -0.3431
 5353UDC    C1158883  19.451   4.339   3.107  0.8802  0.3688  0.3422
 5354UDC     C158884   5.044  13.860  19.574 -0.0982 -0.0079 -0.1374
 5354UDC     C258885   4.909  13.859  19.501  0.4723  0.0065  0.3159
 5354UDC     C358886   4.805  13.776  19.568 -0.4012 -0.8938  0.1760
 5354UDC     C458887   4.806  13.777  19.721  0.2918  0.5757  0.4488
 5354UDC     C558888   4.698  13.848  19.790 -0.4784  0.2552  1.2070
 5354UDC     C658889   4.758  13.894  19.919 -0.6313  1.7778  0.3851
 5354UDC     C758890   4.775  14.045  19.940  1.2325  0.7108 -0.6636
 5354UDC     C858891   4.906  14.077  20.025 -0.4501 -0.8141  0.1051
 5354UDC     C958892   5.029  14.130  19.948 -0.1208  1.0156  0.7351
 5354UDC    C1058893   5.107  14.243  20.011 -0.7770  0.0800 -1.1573
 5354UDC    C1158894   5.033  14.367  20.072 -0.4271  0.1681 -0.1379
 5355UDC     C158895   3.675   0.215  18.868 -0.5348  0.0181  0.3441
 5355UDC     C258896   3.715   0.230  19.019 -0.3681  1.0907 -0.6806
 5355UDC     C358897   3.862   0.179  19.035  0.1703 -0.1660  0.9437
 5355UDC     C458898   3.933   0.191  19.177 -0.7454 -0.9865  0.1864
 5355UDC     C558899   4.060   0.107  19.206  0.2884 -0.8518 -0.4736
 5355UDC     C658900   4.188   0.174  19.247 -0.5680  0.1300  0.7328
 5355UDC     C758901   4.313   0.081  19.208  0.0171 -0.9066 -0.9049
 5355UDC     C858902   4.365   0.106  19.061  1.5109 -0.6766 -0.4912
 5355UDC     C958903   4.504   0.071  19.027 -1.1246  0.3547 -0.5061
 5355UDC    C1058904   4.540  -0.082  19.038  0.2309 -0.2684  1.1239
 5355UDC    C1158905   4.458  -0.158  18.934  0.4390  0.7982 -0.8732
 5356UDC     C158906  16.169  19.760   5.092  0.6046  0.1470  0.1282
 5356UDC     C258907  16.284  19.716   5.183  0.1691 -0.3123 -0.0094
 5356UDC     C358908  16.402  19.823   5.199  1.3824  0.9006 -0.7960
 5356UDC     C458909  16.511  19.756   5.288 -1.1067 -0.3778 -0.5082
 5356UDC     C558910  16.587  19.856   5.382 -0.8573 -0.4449 -0.3779
 5356UDC     C658911  16.503  19.989   5.387 -0.3244 -0.6399 -0.7187
 5356UDC     C758912  16.579  20.080   5.483  0.7122 -1.1738  0.8742
 5356UDC     C858913  16.603  19.999   5.605 -0.0926 -0.5304 -0.1115
 5356UDC     C958914  16.691  20.053   5.720  0.0195  1.7324 -0.6622
 5356UDC    C1058915  16.731  19.927   5.800  0.1249  0.8204 -0.2547
 5356UDC    C1158916  16.821  19.980   5.918  0.0142 -0.3641  0.0277
 5357UDC     C158917  15.814  16.213  12.749 -0.2268 -0.0011 -0.1635
 5357UDC     C258918  15.754  16.172  12.612  0.0982 -0.5689  0.4594
 5357UDC     C358919  15.837  16.201  12.484 -0.2477  0.5553 -0.0246
 5357UDC     C458920  15.832  16.084  12.391  0.4388 -0.4755  0.6613
 5357UDC     C558921  15.781  16.133  12.258  0.4176  0.7123 -0.2313
 5357UDC     C658922  15.775  16.026  12.154  1.2918  1.1545  0.0788
 5357UDC     C758923  15.649  15.939  12.190  1.0672  0.1197  0.5888
 5357UDC     C858924  15.653  15.784  12.191 -0.2293  0.1080 -0.3553
 5357UDC     C958925  15.626  15.710  12.055 -0.8365 -0.3707 -0.4009
 5357UDC    C1058926  15.604  15.558  12.063 -0.5025  0.0781  0.1859
 5357UDC    C1158927  15.589  15.463  11.947  0.4197 -0.1914  0.6093
 5358UDC     C158928  14.990   2.344  15.153  0.7688  0.2195  0.2372
 5358UDC     C258929  14.839   2.326  15.205 -0.1204  0.2853 -0.1143
 5358UDC     C358930  14.802   2.182  15.220  0.5109 -0.2090 -0.5712
 5358UDC     C458931  14.850   2.148  15.356  0.7711  0.4033 -0.0180
 5358UDC     C558932  14.791   2.240  15.466 -1.1005  0.0957 -1.1239
 5358UDC     C658933  14.790   2.188  15.609  0.1168  0.0533 -0.8204
 5358UDC     C758934  14.927   2.143  15.661  0.2757 -0.5307  0.4350
 5358UDC     C858935  14.923   2.125  15.820 -1.1302 -0.0943  0.6801
 5358UDC     C958936  15.046   2.044  15.874  1.2264  0.4788  0.4781
 5358UDC    C1058937  15.097   2.078  16.013 -0.3085 -0.0944  0.0970
 5358UDC    C1158938  14.992   2.040  16.120  0.9120 -0.7677 -0.9024
 5359UDC     C158939  10.653  18.103  10.388  0.1754 -0.0243 -0.3930
 5359UDC     C258940  10.724  18.078  10.244  0.1460 -0.6260  0.3564
 5359UDC     C358941  10.763  17.940  10.198  0.0249  1.4526 -0.2723
 5359UDC     C458942  10.705  17.898  10.058  0.8404 -1.1179 -0.7167
 5359UDC     C558943  10.765  17.999   9.962 -0.0279 -0.0560 -0.2507
 5359UDC     C658944  10.869  17.949   9.858  0.5927  0.4454 -0.2066
 5359UDC     C758945  10.858  18.024   9.727 -0.4603 -0.1235 -0.3137
 5359UDC     C858946  10.716  18.020   9.674 -0.4182  0.0259 -0.1388
 5359UDC     C958947  10.702  18.119   9.557  0.6234 -0.3293 -0.8476
 5359UDC    C1058948  10.567  18.101   9.482 -0.6412  0.5282  0.0538
 5359UDC    C1158949  10.544  18.162   9.348  0.1538 -0.8575  0.5079
 5360UDC     C158950   1.912  10.219   8.360  0.6735 -0.3713  0.4627
 5360UDC     C258951   1.912  10.158   8.213 -0.7610  0.2331  0.0862
 5360UDC     C358952   1.969  10.265   8.117 -0.5212  0.1095 -0.0478
 5360UDC     C458953   1.991  10.190   7.984  0.0666 -0.4208 -0.9148
 5360UDC     C558954   2.031  10.282   7.874 -0.4010  0.2776 -0.4920
 5360UDC     C658955   1.931  10.394   7.865 -0.4764 -0.4101 -0.2430
 5360UDC     C758956   1.908  10.443   7.722 -0.6297 -0.5160 -0.3863
 5360UDC     C858957   1.805  10.556   7.728  1.3876 -0.5494  0.7717
 5360UDC     C958958   1.659  10.528   7.784  0.5688  0.9189  0.0425
 5360UDC    C1058959   1.561  10.635   7.837 -0.6760 -0.1780 -0.7348
 5360UDC    C1158960   1.415  10.593   7.814  0.0160  0.6121 -1.2116
 5361UDC     C158961  18.715   1.885   2.507  1.3712  0.1342  0.2593
 5361UDC     C258962  18.684   1.995   2.410 -0.4351  0.6138  0.2308
 5361UDC     C358963  18.646   1.943   2.272  0.1938 -0.3649  0.3007
 5361UDC     C458964  18.778   1.876   2.221  0.5420 -0.3917  1.3852
 5361UDC     C558965  18.737   1.765   2.120 -0.0412  0.0901  0.4124
 5361UDC     C658966  18.660   1.815   1.995  1.5840  0.1056  0.3045
 5361UDC     C758967  18.644   1.688   1.908 -0.8124 -0.1972 -0.1668
 5361UDC     C858968  18.779   1.626   1.863 -0.8670  1.0096 -0.0137
 5361UDC     C958969  18.793   1.473   1.869 -0.3759  0.7496  0.2361
 5361UDC    C1058970  18.817   1.419   2.009 -0.5704 -0.1742  0.5072
 5361UDC    C1158971  18.960   1.426   2.074 -0.7386 -0.8014  0.1100
 5362UDC     C158972   9.344  14.202  14.473  0.0866 -0.2610  0.1546
 5362UDC     C258973   9.458  14.230  14.368 -0.2342  0.7224 -0.5840
 5362UDC     C358974   9.516  14.103  14.297  0.7259  0.3014  0.0617
 5362UDC     C458975   9.647  14.135  14.244 -0.3209 -0.5097 -0.2137
 5362UDC     C558976   9.701  14.266  14.290  0.1470 -1.6108  0.8612
 5362UDC     C658977   9.773  14.356  14.185 -0.8613  0.0690 -0.1248
 5362UDC     C758978   9.888  14.441  14.249 -0.3104 -0.8511 -0.0656
 5362UDC     C858979   9.995  14.353  14.312  0.6304  0.9341  0.1845
 5362UDC     C958980  10.111  14.438  14.365 -1.2526  0.2902 -0.3384
 5362UDC    C1058981  10.196  14.382  14.481  0.3308 -0.0944  1.1344
 5362UDC    C1158982  10.115  14.344  14.601 -0.1073 -0.0565 -0.1064
 5363UDC     C158983  10.284   7.998  13.040 -0.2563 -0.8722 -0.7091
 5363UDC     C258984  10.402   7.905  13.017  0.3248 -0.4988  0.5523
 5363UDC     C358985  10.364   7.799  12.904  0.2431 -0.2330  0.5706
 5363UDC     C458986  10.485   7.708  12.886  0.7642 -0.3987 -0.3971
 5363UDC     C558987  10.549   7.625  12.996  0.9701  0.2921  0.1944
 5363UDC     C658988  10.630   7.506  12.936 -0.5850  0.7304 -0.9395
 5363UDC     C758989  10.724   7.539  12.819  0.0393 -0.8728  0.0828
 5363UDC     C858990  10.769   7.415  12.750 -0.8264  0.2593  0.5024
 5363UDC     C958991  10.773   7.400  12.598  0.9572  0.1238 -0.0934
 5363UDC    C1058992  10.830   7.268  12.547 -0.3483  0.0290  0.1169
 5363UDC    C1158993  10.842   7.260  12.396  0.2643 -0.5643 -0.4696
 5364UDC     C158994  13.115   8.373  15.481  0.0335  0.1353  0.1170
 5364UDC     C258995  13.205   8.284  15.389 -0.8083  0.1835  0.3158
 5364UDC     C358996  13.183   8.317  15.242 -0.4107  0.1407  0.4753
 5364UDC     C458997  13.240   8.444  15.182  0.2642 -0.1890  0.2362
 5364UDC     C558998  13.204   8.448  15.031  0.0148 -1.4352 -0.4057
 5364UDC     C658999  13.054   8.436  15.021 -0.2650 -0.2129  0.2815
 5364UDC     C759000  13.019   8.400  14.876  0.2542  0.1768  0.0835
 5364UDC     C859001  12.874   8.378  14.859  0.4882  0.5676  0.7332
 5364UDC     C959002  12.827   8.314  14.730 -0.0148 -0.8969 -0.8651
 5364UDC    C1059003  12.903   8.193  14.688  0.5305  1.2829  0.1805
 5364UDC    C1159004  12.830   8.110  14.589 -0.5987  0.5157 -0.0638
 5365UDC     C159005   1.051   0.797  14.471  0.3690  0.5594  0.1822
 5365UDC     C259006   1.119   0.694  14.380 -0.9175 -0.4447  0.7561
 5365UDC     C359007   1.047   0.682  14.248  0.4608 -0.4118 -0.1055
 5365UDC     C459008   1.117   0.602  14.139 -0.2434 -0.1803  0.0510
 5365UDC     C559009   1.047   0.476  14.074 -0.8720 -1.3043 -0.2047
 5365UDC     C659010   1.119   0.431  13.940 -0.2118  0.2602 -0.2301
 5365UDC     C759011   1.073   0.315  13.852  0.6814 -0.9510  0.7730
 5365UDC     C859012   1.111   0.305  13.703 -0.4485 -0.3151  0.9154
 5365UDC     C959013   1.009   0.218  13.632  0.2479  0.1435 -0.5579
 5365UDC    C1059014   1.024   0.182  13.487 -0.3844  0.3072  0.1924
 5365UDC    C1159015   0.901   0.091  13.452 -0.2695 -0.3107  0.6706
 5366UDC     C159016  17.176  19.354   0.807  0.1854  0.2070  0.1479
 5366UDC     C259017  17.297  19.266   0.790 -0.8381 -0.0968  1.2270
 5366UDC     C359018  17.325  19.237   0.642  0.1307 -0.3647 -0.7013
 5366UDC     C459019  17.352  19.366   0.561  0.3190 -0.0673 -0.0541
 5366UDC     C559020  17.479  19.442   0.608 -0.2791  0.1769 -0.2130
 5366UDC     C659021  17.491  19.580   0.547  1.1696 -0.1558  0.2989
 5366UDC     C759022  17.497  19.593   0.393  1.1226  0.3993 -0.3583
 5366UDC     C859023  17.517  19.743   0.355 -1.3149  0.1949  0.5183
 5366UDC     C959024  17.656  19.798   0.378 -0.1837  0.0203 -0.4735
 5366UDC    C1059025  17.685  19.940   0.334 -0.1770  0.0675  0.0678
 5366UDC    C1159026  17.664  19.971   0.182 -0.5907  0.1519 -0.1134
 5367UDC     C159027   9.169   2.033  15.292 -1.1146  0.9350  0.3540
 5367UDC     C259028   9.299   2.088  15.234 -0.3186  0.1856  0.7311
 5367UDC     C359029   9.408   2.114  15.332 -0.2168  0.5616 -0.0977
 5367UDC     C459030   9.554   2.143  15.287 -0.3300 -1.0368  0.2054
 5367UDC     C559031   9.672   2.103  15.382 -0.9675 -1.0097 -0.7866
 5367UDC     C659032   9.787   2.209  15.376  0.2228 -0.4385  0.0913
 5367UDC     C759033   9.902   2.143  15.457  0.3026  0.4912 -0.0881
 5367UDC     C859034   9.991   2.253  15.515  0.2943 -0.5051  0.3016
 5367UDC     C959035  10.081   2.217  15.637  0.5585  1.5148 -0.0866
 5367UDC    C1059036  10.133   2.332  15.721  0.4170 -0.4260 -0.4931
 5367UDC    C1159037  10.166   2.289  15.861 -0.4791 -0.0410  0.1473
 5368UDC     C159038  18.313   9.630   6.919  0.8104 -0.4794  0.7203
 5368UDC     C259039  18.330   9.586   6.778  0.3918 -1.2426  0.1542
 5368UDC     C359040  18.371   9.444   6.748 -0.8703  0.9123 -0.0227
 5368UDC     C459041  18.441   9.408   6.614  0.6189 -0.4122  0.0979
 5368UDC     C559042  18.364   9.341   6.487 -0.5784  1.1327 -0.7164
 5368UDC     C659043  18.451   9.289   6.370 -0.7784 -1.6614 -0.7135
 5368UDC     C759044  18.479   9.398   6.264 -0.0293  0.1251  0.6916
 5368UDC     C859045  18.356   9.433   6.178  0.7969 -0.0938 -0.4673
 5368UDC     C959046  18.365   9.566   6.103  0.5162  0.2444  0.2049
 5368UDC    C1059047  18.465   9.564   5.992  0.9856  0.4044  0.5688
 5368UDC    C1159048  18.578   9.673   5.986  0.0179 -0.3498  0.3166
 5369UDC     C159049  15.344   2.552   4.003 -0.0314  0.5852  0.3254
 5369UDC     C259050  15.243   2.567   3.886 -1.1638  0.3805 -0.4106
 5369UDC     C359051  15.320   2.623   3.767 -0.8500 -0.4542  0.3778
 5369UDC     C459052  15.449   2.546   3.733  0.1909 -1.0171 -0.3822
 5369UDC     C559053  15.511   2.631   3.615 -0.4842 -0.2443  0.1442
 5369UDC     C659054  15.596   2.581   3.501 -0.0960 -0.4251  0.2778
 5369UDC     C759055  15.529   2.477   3.409 -0.4159 -0.3071 -0.9745
 5369UDC     C859056  15.589   2.332   3.417  0.4715 -0.8756 -0.4668
 5369UDC     C959057  15.515   2.219   3.340  0.3048 -0.5391 -0.0190
 5369UDC    C1059058  15.585   2.084   3.371  0.0323 -0.9303 -0.8336
 5369UDC    C1159059  15.601   2.041   3.521 -0.5139  0.3886  1.0397
 5370UDC     C159060   5.099   7.550   4.850 -0.9285 -0.5546 -0.4841
 5370UDC     C259061   4.955   7.556   4.892  0.8769 -0.4993 -0.8090
 5370UDC     C359062   4.898   7.433   4.973  1.0754 -0.8411  0.0184
 5370UDC     C459063   4.755   7.429   5.037 -0.3682 -0.2337  0.7983
 5370UDC     C559064   4.743   7.520   5.161 -1.1998  0.4612  0.8604
 5370UDC     C659065   4.606   7.553   5.223 -0.1259  0.2637 -0.2968
 5370UDC     C759066   4.603   7.642   5.354  0.9161  0.1141 -0.5523
 5370UDC     C859067   4.720   7.601   5.444  0.1293  0.6497  0.5650
 5370UDC     C959068   4.733   7.696   5.560 -0.7595 -1.4763  0.3734
 5370UDC    C1059069   4.616   7.800   5.572 -0.2303  0.7447 -1.0599
 5370UDC    C1159070   4.596   7.851   5.711  0.1308  0.3822 -0.4333
 5371UDC     C159071  13.300   6.154   0.433 -0.3256 -0.3997 -0.1129
 5371UDC     C259072  13.307   6.103   0.581  0.1650  0.6200 -0.1132
 5371UDC     C359073  13.228   5.969   0.584  1.2799  0.5255 -1.0301
 5371UDC     C459074  13.293   5.859   0.673 -0.8413 -0.1108  0.4904
 5371UDC     C559075  13.273   5.712   0.623 -0.7876 -0.2376  0.9583
 5371UDC     C659076  13.332   5.690   0.483 -0.0354  0.1835 -0.4134
 5371UDC     C759077  13.478   5.669   0.480  0.2074 -1.4212 -0.1933
 5371UDC     C859078  13.514   5.584   0.363  0.8839 -0.5984  0.1711
 5371UDC     C959079  13.644   5.597   0.292 -0.8875 -0.5102  0.2408
 5371UDC    C1059080  13.671   5.732   0.229  0.1651 -0.1383  0.0199
 5371UDC    C1159081  13.817   5.739   0.172  0.6132  0.2496 -0.9136
 5372UDC     C159082   6.177   1.491  11.708 -0.3749  0.0064  0.5387
 5372UDC     C259083   6.069   1.381  11.715 -0.0974  0.2250  0.5141
 5372UDC     C359084   6.046   1.331  11.853  0.2658 -0.4422 -1.2677
 5372UDC     C459085   5.898   1.284  11.869  0.3887  0.8462  0.3192
 5372UDC     C559086   5.865   1.158  11.781  0.5470 -0.5916  0.3121
 5372UDC     C659087   5.966   1.047  11.788 -0.3240  0.5313 -0.6504
 5372UDC     C759088   5.923   0.915  11.716  0.0333  1.0325  0.6467
 5372UDC     C859089   6.024   0.791  11.714 -0.5376  0.5772 -0.8189
 5372UDC     C959090   5.952   0.661  11.676 -0.3239 -1.2447  0.0242
 5372UDC    C1059091   5.869   0.581  11.786  0.5725  0.8930  0.1130
 5372UDC    C1159092   5.950   0.482  11.872 -0.4032  0.2662 -0.5827
 5373UDC     C159093   6.839  11.337   9.076  1.0146 -0.1194  0.5686
 5373UDC     C259094   6.847  11.192   9.007 -0.0595  0.4488 -0.3565
 5373UDC     C359095   6.776  11.191   8.871  0.0516  0.4542 -1.0134
 5373UDC     C459096   6.779  11.080   8.770  0.1353  0.5419 -0.5134
 5373UDC     C559097   6.927  11.016   8.753  0.1994  0.3579 -0.5423
 5373UDC     C659098   6.948  10.919   8.641  0.5685  0.8119 -0.0399
 5373UDC     C759099   7.067  10.823   8.655  0.4292 -0.4702  0.4385
 5373UDC     C859100   7.064  10.730   8.535 -1.1998  0.0876  0.1191
 5373UDC     C959101   7.175  10.766   8.431  0.3250  1.0091 -0.0614
 5373UDC    C1059102   7.177  10.666   8.313  0.5083 -0.1695 -0.2270
 5373UDC    C1159103   7.031  10.650   8.268 -1.3320 -0.7615 -0.4558
 5374UDC     C159104  17.311  12.141   4.779 -0.1079 -0.3174 -0.9108
 5374UDC     C259105  17.322  12.254   4.871 -0.6258  0.1036 -1.1426
 5374UDC     C359106  17.294  12.385   4.796 -0.8964 -0.4687  0.0136
 5374UDC     C459107  17.419  12.450   4.737  0.2255  0.3154 -0.2402
 5374UDC     C559108  17.388  12.597   4.699  0.2715 -0.7850  0.4145
 5374UDC     C659109  17.494  12.697   4.667  0.2411 -0.0253 -0.8131
 5374UDC     C759110  17.448  12.805   4.573 -0.1515  0.9733  1.4358
 5374UDC     C859111  17.397  12.939   4.631  0.2178 -0.5664  0.0463
 5374UDC     C959112  17.505  13.046   4.630 -0.8481 -0.7496  0.1823
 5374UDC    C1059113  17.531  13.104   4.488 -0.7988 -0.0732  0.6624
 5374UDC    C1159114  17.427  13.209   4.458  0.7167 -0.1029  1.0312
 5375UDC     C159115   8.557   2.409  18.454 -0.9000 -0.4145  0.3751
 5375UDC     C259116   8.629   2.274  18.459 -0.3439  0.3977 -0.5254
 5375UDC     C359117   8.742   2.264  18.363 -0.8254 -0.7772 -1.9995
 5375UDC     C459118   8.819   2.133  18.401  0.8436  0.8767  0.4325
 5375UDC     C559119   8.917   2.073  18.302 -0.8616  0.6287  0.5198
 5375UDC     C659120   8.863   2.012  18.171 -0.1236 -0.7768  0.4920
 5375UDC     C759121   8.802   1.875  18.189  0.7180  1.0334  0.1659
 5375UDC     C859122   8.895   1.753  18.192 -0.9061 -0.9231  0.4460
 5375UDC     C959123   8.868   1.612  18.231 -0.3209 -0.1118 -1.4291
 5375UDC    C1059124   8.924   1.523  18.123 -0.9549 -0.0759  0.8401
 5375UDC    C1159125   9.071   1.472  18.133 -0.3193 -0.4010  0.2489
 5376UDC     C159126   7.845   0.146  18.313 -0.3123  0.5780 -0.5119
 5376UDC     C259127   7.880   0.250  18.208 -0.9411  1.2386  0.7244
 5376UDC     C359128   7.929   0.187  18.070  0.3199 -0.0806 -0.5355
 5376UDC     C459129   7.985   0.276  17.956 -1.0753 -0.3037 -0.6682
 5376UDC     C559130   8.011   0.214  17.813  0.8637 -0.1726  0.3895
 5376UDC     C659131   8.089   0.303  17.714  0.6965 -0.7062 -0.1756
 5376UDC     C759132   8.109   0.248  17.576  0.8429  0.2345  0.3367
 5376UDC     C859133   8.195   0.331  17.475 -0.0695 -0.4237 -0.8264
 5376UDC     C959134   8.192   0.253  17.344 -0.4035  0.0549  1.0785
 5376UDC    C1059135   8.190   0.106  17.372  0.1318  0.7430  0.1862
 5376UDC    C1159136   8.152   0.015  17.254  0.0819 -0.3193  0.2389
 5377UDC     C159137   9.935   8.627  14.360 -0.6106 -0.1744 -0.9297
 5377UDC     C259138   9.957   8.597  14.511  0.3585 -0.1711  0.0707
 5377UDC     C359139  10.018   8.468  14.558 -0.0532  1.2166  0.7269
 5377UDC     C459140   9.917   8.356  14.559 -0.8589  0.1254 -0.1662
 5377UDC     C559141   9.902   8.273  14.427  0.5242  0.4307  1.1358
 5377UDC     C659142   9.932   8.119  14.450  0.0479  0.3196  0.9512
 5377UDC     C759143   9.950   8.034  14.326  0.4530 -0.2652  0.8214
 5377UDC     C859144  10.038   8.110  14.223 -0.3399 -0.3656  1.6366
 5377UDC     C959145  10.079   8.014  14.106 -0.5370  0.3721 -0.7293
 5377UDC    C1059146  10.127   8.097  13.992 -0.8651  0.1721  0.4146
 5377UDC    C1159147  10.157   8.240  14.038  0.6593 -0.5865 -0.7514
 5378UDC     C159148   2.104  13.146   1.935  0.0022  0.0467  0.1211
 5378UDC     C259149   2.024  13.196   1.810  0.8152  0.6538  0.3438
 5378UDC     C359150   2.063  13.333   1.762  0.5630 -0.5340 -0.6414
 5378UDC     C459151   1.991  13.383   1.634 -0.4238  0.3929  0.3974
 5378UDC     C559152   2.026  13.278   1.525  0.2977  0.1049 -0.2547
 5378UDC     C659153   1.965  13.320   1.391 -0.1490  0.1054  0.4930
 5378UDC     C759154   1.810  13.344   1.366 -0.3532 -0.5644 -0.0681
 5378UDC     C859155   1.782  13.396   1.222  0.5863  0.3440 -0.6696
 5378UDC     C959156   1.891  13.354   1.124  0.3869 -0.1493  0.1385
 5378UDC    C1059157   1.845  13.388   0.976  0.4424 -0.0757 -0.2037
 5378UDC    C1159158   1.753  13.288   0.910 -0.3636 -0.3110  0.6396
 5379UDC     C159159  18.679  15.682   4.241  0.8219 -0.0337  0.0209
 5379UDC     C259160  18.822  15.629   4.239 -0.1583  1.7298  0.2691
 5379UDC     C359161  18.843  15.502   4.319 -0.0723  0.7467 -0.0789
 5379UDC     C459162  18.963  15.419   4.274 -0.2283  0.6924  0.2518
 5379UDC     C559163  19.074  15.399   4.378 -0.8985 -0.4093 -0.6496
 5379UDC     C659164  19.217  15.370   4.316 -0.0520  1.0645  1.1685
 5379UDC     C759165  19.324  15.348   4.424  0.0880 -0.0574  0.0956
 5379UDC     C859166  19.473  15.368   4.382 -0.8469  0.7693 -0.0410
 5379UDC     C959167  19.489  15.519   4.357 -0.8420  0.6202 -0.2049
 5379UDC    C1059168  19.626  15.566   4.304 -0.4635  0.0876  0.7351
 5379UDC    C1159169  19.634  15.710   4.238 -0.1035  0.3315  0.5632
 5380UDC     C159170  11.725  13.177  14.063 -0.2440 -0.1999  0.1801
 5380UDC     C259171  11.703  13.046  14.137  0.1751  0.5089 -0.0750
 5380UDC     C359172  11.771  12.968  14.024  0.0731  0.4467 -0.3848
 5380UDC     C459173  11.762  12.832  14.075  0.0721  0.4108  1.0924
 5380UDC     C559174  11.823  12.727  13.971 -0.1129 -0.1812 -0.9715
 5380UDC     C659175  11.757  12.772  13.839  0.2171 -0.5049  0.3639
 5380UDC     C759176  11.824  12.745  13.705 -0.2448 -0.1441 -0.1333
 5380UDC     C859177  11.840  12.603  13.651  0.2556  0.1024 -0.4788
 5380UDC     C959178  11.951  12.606  13.537  0.1234 -1.5349 -1.1070
 5380UDC    C1059179  12.076  12.691  13.581  0.5079  0.3814 -0.1684
 5380UDC    C1159180  12.165  12.672  13.454 -0.1671 -0.5500  0.7211
 5381UDC     C159181  11.787  11.601  16.152 -0.4672 -0.7968 -0.1875
 5381UDC     C259182  11.790  11.533  16.293  0.5960  0.1210 -0.3762
 5381UDC     C359183  11.840  11.635  16.401 -0.0095  0.2817  1.0965
 5381UDC     C459184  11.978  11.694  16.368  0.3918 -0.1538  0.3569
 5381UDC     C559185  12.100  11.595  16.378  0.5522 -1.2468 -0.0170
 5381UDC     C659186  12.247  11.648  16.384 -1.2200 -0.1659 -0.4924
 5381UDC     C759187  12.259  11.717  16.523 -0.9339  0.7709  1.0056
 5381UDC     C859188  12.329  11.850  16.532 -0.0439 -0.2461 -0.6553
 5381UDC     C959189  12.243  11.957  16.467 -0.1364  0.5959 -0.2299
 5381UDC    C1059190  12.308  12.101  16.479  0.2892  0.7472 -0.4627
 5381UDC    C1159191  12.230  12.203  16.404 -0.8113 -0.2342  0.9173
 5382UDC     C159192  12.836  13.412   0.830 -0.1301 -0.4899 -0.6741
 5382UDC     C259193  12.896  13.366   0.972  0.3346 -0.1012  0.4313
 5382UDC     C359194  12.782  13.291   1.045 -0.6111  0.6023  0.1093
 5382UDC     C459195  12.680  13.362   1.131 -1.0630  0.0023  0.1030
 5382UDC     C559196  12.715  13.354   1.276 -1.0511 -0.0206 -0.4063
 5382UDC     C659197  12.589  13.352   1.366  1.2606 -0.2423  0.0695
 5382UDC     C759198  12.509  13.219   1.379 -0.4429 -0.0789  0.8268
 5382UDC     C859199  12.383  13.209   1.467  0.8947  0.3748  0.8214
 5382UDC     C959200  12.374  13.065   1.507  1.1405 -0.3202  0.2508
 5382UDC    C1059201  12.400  13.082   1.662  0.5123  0.8069  0.2312
 5382UDC    C1159202  12.282  13.075   1.760 -0.0484  0.8866  1.4150
 5383UDC     C159203  18.759   2.324   5.261  0.8902  0.0209 -1.6774
 5383UDC     C259204  18.816   2.317   5.114 -1.2052 -0.0786 -0.6641
 5383UDC     C359205  18.737   2.235   5.016  0.1326  0.1174  0.1533
 5383UDC     C459206  18.786   2.232   4.866 -0.2664 -0.2881 -0.7108
 5383UDC     C559207  18.941   2.241   4.874  0.7955 -0.4031 -0.0907
 5383UDC     C659208  19.015   2.108   4.863  0.0842  0.4159  0.8783
 5383UDC     C759209  18.998   1.999   4.968  0.5082 -0.5917 -0.5012
 5383UDC     C859210  19.094   1.875   4.942  0.5881 -0.0368 -0.5362
 5383UDC     C959211  19.051   1.771   4.833 -0.1862 -0.3499 -0.3164
 5383UDC    C1059212  19.129   1.643   4.841 -0.1234 -0.3433 -1.1089
 5383UDC    C1159213  19.139   1.566   4.704 -0.1840  0.3220  0.4194
 5384UDC     C159214   3.767   7.415  13.525  0.6462 -0.6597  1.1785
 5384UDC     C259215   3.727   7.543  13.442  0.2883  0.5066  0.1954
 5384UDC     C359216   3.659   7.533  13.306  0.1447  0.5328 -0.6027
 5384UDC     C459217   3.541   7.428  13.291  0.5898 -0.3670 -0.9994
 5384UDC     C559218   3.431   7.474  13.190  0.1880 -0.5324  0.4969
 5384UDC     C659219   3.314   7.377  13.155  0.2521  1.4388 -0.3952
 5384UDC     C759220   3.177   7.444  13.145 -1.1126  1.5010  0.4060
 5384UDC     C859221   3.128   7.494  13.009 -1.9615 -0.0676  0.6669
 5384UDC     C959222   3.016   7.596  13.013  1.1196  0.1494 -0.3628
 5384UDC    C1059223   2.880   7.525  13.046  0.1807  0.4272  0.5812
 5384UDC    C1159224   2.787   7.640  13.087 -0.1825  0.7902 -0.8626
 5385UDC     C159225   5.555  14.090  18.416  0.4800 -0.2637  0.2807
 5385UDC     C259226   5.603  14.222  18.481 -0.7476 -0.1124 -0.5739
 5385UDC     C359227   5.478  14.307  18.481 -0.4501  0.6095  0.7849
 5385UDC     C459228   5.473  14.442  18.560 -0.5547 -0.8548  0.0382
 5385UDC     C559229   5.588  14.529  18.504  0.0810  0.1630 -1.1955
 5385UDC     C659230   5.618  14.651  18.600  0.7109  1.0660  0.6337
 5385UDC     C759231   5.642  14.776  18.515 -1.4433 -0.1229  0.4702
 5385UDC     C859232   5.634  14.908  18.585 -0.2423 -0.5971  0.1232
 5385UDC     C959233   5.774  14.945  18.629  0.3782  0.5295  0.0482
 5385UDC    C1059234   5.775  15.073  18.706  1.1774  0.1195  0.5639
 5385UDC    C1159235   5.696  15.067  18.842  0.0927 -0.6396  0.1704
 5386UDC     C159236  15.351  12.628  16.166 -1.3723 -0.0542 -0.6210
 5386UDC     C259237  15.497  12.638  16.218 -0.6226  1.5449  0.4070
 5386UDC     C359238  15.492  12.684  16.366 -0.9578  0.0189  0.5249
 5386UDC     C459239  15.477  12.560  16.461  0.0094 -0.2844 -0.5864
 5386UDC     C559240  15.438  12.577  16.604  0.3791 -0.3445 -0.0796
 5386UDC     C659241  15.541  12.564  16.722 -0.0071 -1.1766  0.4407
 5386UDC     C759242  15.468  12.611  16.848  0.5282 -0.1183  0.0036
 5386UDC     C859243  15.572  12.685  16.937 -0.7273 -1.2873 -0.6121
 5386UDC     C959244  15.524  12.819  16.994 -0.0699  0.6000  0.0068
 5386UDC    C1059245  15.418  12.804  17.102 -0.3936 -0.4711 -0.8476
 5386UDC    C1159246  15.447  12.881  17.233  0.3093 -0.5269  0.2651
 5387UDC     C159247   3.387   4.153  17.003  0.0612 -0.2582 -0.4653
 5387UDC     C259248   3.536   4.105  17.048 -0.4721 -0.6249  1.1118
 5387UDC     C359249   3.578   4.198  17.164  0.1446 -0.4718 -0.3347
 5387UDC     C459250   3.496   4.176  17.290  0.0023 -1.2581  0.3169
 5387UDC     C559251   3.508   4.288  17.400  0.4447  0.4998 -0.3300
 5387UDC     C659252   3.446   4.265  17.539 -0.1333  0.3719  0.3620
 5387UDC     C759253   3.409   4.390  17.618 -0.7541 -0.3271  0.0172
 5387UDC     C859254   3.528   4.499  17.639 -0.0010 -0.2343  0.1069
 5387UDC     C959255   3.479   4.635  17.690 -1.1026 -0.0649 -0.1160
 5387UDC    C1059256   3.428   4.739  17.597 -0.0942 -0.0114 -1.5762
 5387UDC    C1159257   3.401   4.877  17.665 -0.1823  0.0782 -0.9508
 5388UDC     C159258   6.379  10.979  14.036 -0.4442  0.0364 -0.4766
 5388UDC     C259259   6.454  10.858  14.098  0.2115 -0.2308  0.2885
 5388UDC     C359260   6.383  10.728  14.122  0.3208  0.5070  0.4264
 5388UDC     C459261   6.237  10.765  14.134  1.5963 -0.1415 -0.2721
 5388UDC     C559262   6.151  10.636  14.139 -0.0045 -0.9275  0.2058
 5388UDC     C659263   6.002  10.650  14.118 -0.9040  0.0481 -0.0796
 5388UDC     C759264   5.947  10.512  14.080  0.1039 -0.9417 -0.1990
 5388UDC     C859265   5.807  10.504  14.019  0.2162 -0.2186  0.4139
 5388UDC     C959266   5.751  10.363  14.036  0.1656 -0.5840  0.2537
 5388UDC    C1059267   5.600  10.332  14.062 -0.7042  0.0848 -0.1206
 5388UDC    C1159268   5.576  10.184  14.021 -0.1734 -0.6575  0.1453
 5389UDC     C159269  11.013  13.363  19.137 -0.7698 -0.3118 -0.0155
 5389UDC     C259270  11.045  13.507  19.165  0.1905 -0.8206 -0.5511
 5389UDC     C359271  11.168  13.572  19.090  0.0790  0.0694  0.2660
 5389UDC     C459272  11.141  13.720  19.068  0.5422 -0.2895 -0.1409
 5389UDC     C559273  11.031  13.769  18.972 -0.3589  0.2448  0.0947
 5389UDC     C659274  11.030  13.921  18.966  0.3465  0.5889 -0.7637
 5389UDC     C759275  11.114  14.008  19.062  0.5576  0.8212 -0.5111
 5389UDC     C859276  11.092  14.160  19.040  0.7815  0.8874  0.7855
 5389UDC     C959277  11.188  14.235  19.132  0.1139  0.0562  0.5611
 5389UDC    C1059278  11.163  14.382  19.098 -0.3982  0.1390  0.0565
 5389UDC    C1159279  11.011  14.377  19.102  0.0021 -0.2637  0.0370
 5390UDC     C159280  12.494  10.857   4.846 -0.0893  0.3792  0.6750
 5390UDC     C259281  12.557  10.823   4.697 -0.1492  0.3734 -0.9159
 5390UDC     C359282  12.470  10.715   4.634  0.1317  0.6822 -0.7853
 5390UDC     C459283  12.484  10.590   4.729  0.7108  0.6757  0.1970
 5390UDC     C559284  12.439  10.449   4.683  0.0783  0.4441 -0.7384
 5390UDC     C659285  12.418  10.344   4.791 -0.1276  0.8225 -0.7155
 5390UDC     C759286  12.532  10.234   4.782 -0.1291 -0.5221 -1.3572
 5390UDC     C859287  12.529  10.102   4.863 -0.6369 -0.3006 -0.1374
 5390UDC     C959288  12.663  10.022   4.874 -0.0665 -0.8332  0.2773
 5390UDC    C1059289  12.641   9.874   4.858  0.3793  0.1258 -0.4925
 5390UDC    C1159290  12.764   9.788   4.885 -0.0618 -0.2412  0.0338
 5391UDC     C159291   3.566   3.054  11.189 -0.2348  0.1132  0.3942
 5391UDC     C259292   3.669   3.167  11.204 -0.3750 -1.2007  0.3169
 5391UDC     C359293   3.696   3.217  11.341 -0.3358  0.6187 -0.1322
 5391UDC     C459294   3.785   3.339  11.349 -1.0105 -0.3678  0.8938
 5391UDC     C559295   3.913   3.343  11.266 -0.1657  1.1245  0.2205
 5391UDC     C659296   4.019   3.454  11.294 -0.1178  0.5644 -0.5212
 5391UDC     C759297   4.060   3.476  11.438 -0.1598  0.7496 -0.0695
 5391UDC     C859298   4.133   3.600  11.468  0.1481 -0.6117 -0.0254
 5391UDC     C959299   4.187   3.597  11.614 -0.2447  0.8952  0.0464
 5391UDC    C1059300   4.208   3.736  11.654  0.9708 -0.3585 -1.1147
 5391UDC    C1159301   4.341   3.801  11.616 -0.5726 -0.0165  0.4876
 5392UDC     C159302   5.401  12.570  14.361  0.6415 -0.1153  0.0877
 5392UDC     C259303   5.469  12.467  14.455  0.0588 -0.0409 -0.3320
 5392UDC     C359304   5.608  12.510  14.490 -0.3487  1.2652  0.0390
 5392UDC     C459305   5.676  12.434  14.601  0.0057 -0.0304 -0.3364
 5392UDC     C559306   5.813  12.492  14.652  0.1378 -0.2102  0.9066
 5392UDC     C659307   5.863  12.421  14.777 -1.1982  0.9595  0.1423
 5392UDC     C759308   5.973  12.318  14.757  0.7014 -0.5033  0.3148
 5392UDC     C859309   5.969  12.216  14.639  0.2618  0.7756  0.3685
 5392UDC     C959310   6.088  12.106  14.643 -0.1993 -0.4324 -0.2400
 5392UDC    C1059311   6.070  12.008  14.523 -0.6153 -1.4598 -0.3270
 5392UDC    C1159312   5.939  11.930  14.517  0.7927 -0.5362 -0.9182
 5393UDC     C159313   4.584  14.706  10.241  0.9803 -0.3236  0.5397
 5393UDC     C259314   4.589  14.558  10.281 -0.0924 -0.3709  0.3223
 5393UDC     C359315   4.509  14.509  10.403 -0.3123 -0.7485  0.1294
 5393UDC     C459316   4.524  14.354  10.423  0.6785 -0.0876 -0.1089
 5393UDC     C559317   4.412  14.251  10.439  0.3165  0.4748  0.2947
 5393UDC     C659318   4.327  14.249  10.569  0.1221  0.4345  0.4377
 5393UDC     C759319   4.275  14.107  10.581  0.0682 -0.4723  0.2735
 5393UDC     C859320   4.217  14.098  10.719  0.6165  0.0183 -0.3379
 5393UDC     C959321   4.329  14.115  10.821 -0.5957 -0.5777 -0.0666
 5393UDC    C1059322   4.300  14.116  10.972 -0.8131  0.9885 -0.5777
 5393UDC    C1159323   4.208  14.007  11.030 -0.2076 -0.5639  1.5221
 5394UDC     C159324   6.069   0.620   4.539  0.3476 -0.3520 -1.9694
 5394UDC     C259325   6.135   0.557   4.660 -1.2880 -0.2540 -0.4058
 5394UDC     C359326   6.260   0.636   4.702  0.1266  0.5275 -0.8019
 5394UDC     C459327   6.310   0.592   4.836 -0.0829 -0.1522 -1.4941
 5394UDC     C559328   6.352   0.707   4.935  0.3697 -1.0299 -0.6078
 5394UDC     C659329   6.424   0.689   5.072  0.7452 -0.9690 -0.0577
 5394UDC     C759330   6.324   0.647   5.184  0.3656 -0.3959  0.2177
 5394UDC     C859331   6.393   0.603   5.323 -0.1837 -0.3001  1.3061
 5394UDC     C959332   6.302   0.571   5.442 -0.5091 -1.1253  0.6554
 5394UDC    C1059333   6.357   0.523   5.574 -1.6111 -0.7822 -0.1477
 5394UDC    C1159334   6.254   0.553   5.688 -0.2945 -0.5450 -0.5455
 5395UDC     C159335   6.731   0.538   9.781  0.4064  0.1026 -0.2802
 5395UDC     C259336   6.732   0.689   9.757 -0.1114  0.3205  0.5946
 5395UDC     C359337   6.731   0.748   9.609 -0.2519  0.3710 -0.0244
 5395UDC     C459338   6.689   0.892   9.571  0.4620 -0.9928  0.6242
 5395UDC     C559339   6.537   0.895   9.577  0.1213 -0.2918 -0.2053
 5395UDC     C659340   6.463   0.854   9.446 -0.0203  0.3846  0.1062
 5395UDC     C759341   6.322   0.890   9.471 -0.6020 -0.1275  0.5238
 5395UDC     C859342   6.224   0.841   9.354 -0.0153  0.4427  0.4799
 5395UDC     C959343   6.246   0.684   9.344  0.4013 -0.4202  0.4658
 5395UDC    C1059344   6.118   0.637   9.274 -0.4059  0.5397 -2.0832
 5395UDC    C1159345   5.980   0.691   9.308  0.0776  0.8450 -0.3185
 5396UDC     C159346   7.564   0.452   1.318 -0.4181  0.3911 -0.2302
 5396UDC     C259347   7.610   0.518   1.192 -0.6471 -0.1677 -0.7042
 5396UDC     C359348   7.737   0.460   1.119 -0.3139 -0.5124 -0.1819
 5396UDC     C459349   7.870   0.445   1.195 -0.2528  0.4799  0.3190
 5396UDC     C559350   7.982   0.363   1.123 -0.5047 -0.6243 -0.1900
 5396UDC     C659351   8.114   0.393   1.182  0.1039 -1.0060 -0.6106
 5396UDC     C759352   8.156   0.537   1.234 -0.6737 -0.4163  0.6774
 5396UDC     C859353   8.304   0.544   1.284  0.1592 -0.9195  0.6422
 5396UDC     C959354   8.339   0.676   1.352 -0.8184  0.3796 -0.1344
 5396UDC    C1059355   8.486   0.713   1.308 -0.0889 -0.3723  0.6597
 5396UDC    C1159356   8.573   0.826   1.367  0.5304 -0.1683  0.5711
 5397UDC     C159357   7.464   7.703  12.091 -0.4387 -0.1898 -0.4551
 5397UDC     C259358   7.497   7.843  12.153 -0.1514  0.0540  0.4730
 5397UDC     C359359   7.493   7.964  12.064  0.3939  0.0214  0.3538
 5397UDC     C459360   7.499   8.102  12.114 -1.3574  0.8169  0.0824
 5397UDC     C559361   7.398   8.094  12.231  0.6097 -0.1739  1.3621
 5397UDC     C659362   7.254   8.135  12.171 -1.3615 -0.6090  0.0005
 5397UDC     C759363   7.163   8.153  12.287  0.8594 -0.1453  0.1257
 5397UDC     C859364   7.034   8.235  12.268 -0.4498  1.0346  0.6736
 5397UDC     C959365   6.943   8.194  12.155 -0.3004  0.0248 -0.3944
 5397UDC    C1059366   6.847   8.304  12.109 -0.4851  0.1699  0.0229
 5397UDC    C1159367   6.800   8.260  11.968  0.1875 -0.3670  1.0441
 5398UDC     C159368   1.003   8.246  16.239  0.5315  0.1762  0.8452
 5398UDC     C259369   1.002   8.111  16.159  0.1257 -0.2005  0.8740
 5398UDC     C359370   1.074   8.106  16.019  1.8658  0.0921 -0.2134
 5398UDC     C459371   1.010   8.145  15.881  0.2179  0.2196 -0.9508
 5398UDC     C559372   1.086   8.115  15.752  0.0735  0.8002 -0.2579
 5398UDC     C659373   1.009   8.073  15.627 -0.5898 -0.0004  0.7051
 5398UDC     C759374   0.958   7.932  15.657 -0.6177 -0.0741  0.1847
 5398UDC     C859375   0.876   7.846  15.553 -0.3077 -0.3325  0.2042
 5398UDC     C959376   0.845   7.697  15.591 -0.4310  0.2449  0.7159
 5398UDC    C1059377   0.793   7.610  15.470 -0.8261  0.9661 -0.1065
 5398UDC    C1159378   0.718   7.688  15.365  0.8961 -0.2110 -0.3878
 5399UDC     C159379  19.901  11.191   9.955  0.1850 -0.1222 -0.1559
 5399UDC     C259380  19.868  11.045   9.906 -0.3401  0.3029  0.1319
 5399UDC     C359381  19.789  11.036   9.778 -0.4554 -0.1235 -0.3675
 5399UDC     C459382  19.778  10.890   9.724 -0.5232  0.2924 -0.6458
 5399UDC     C559383  19.679  10.894   9.605 -0.4876  0.1009 -1.1105
 5399UDC     C659384  19.687  11.030   9.526  0.1903  0.4370  0.0885
 5399UDC     C759385  19.581  11.050   9.414  0.0734 -0.5964  0.6611
 5399UDC     C859386  19.645  11.170   9.343 -0.1274  0.8873 -0.0316
 5399UDC     C959387  19.560  11.219   9.220  1.3959  0.6624  0.4004
 5399UDC    C1059388  19.587  11.367   9.187  0.1910  1.2301 -1.0870
 5399UDC    C1159389  19.477  11.431   9.102  0.1615 -0.4478  0.3666
 5400UDC     C159390   5.388  13.615  11.185 -0.2185 -0.0679  0.3177
 5400UDC     C259391   5.356  13.466  11.197  0.3847 -0.0850 -0.1743
 5400UDC     C359392   5.208  13.460  11.233  1.3447 -0.5448 -0.2312
 5400UDC     C459393   5.105  13.496  11.117 -0.2136 -0.2601  0.0837
 5400UDC     C559394   5.151  13.452  10.979  0.1668 -0.1118 -0.4370
 5400UDC     C659395   5.045  13.469  10.863  0.4136  1.0381  0.4297
 5400UDC     C759396   4.965  13.591  10.838 -0.2313  0.4231 -0.5303
 5400UDC     C859397   4.874  13.584  10.713 -0.6967 -0.0551 -1.2049
 5400UDC     C959398   4.939  13.604  10.574 -1.0413 -0.9991  0.2129
 5400UDC    C1059399   4.980  13.748  10.540  0.4655  0.2385  0.0287
 5400UDC    C1159400   5.046  13.776  10.404 -0.8435 -1.0783  0.1000
 5401UDC     C159401  16.238  17.299  10.171  0.3777 -0.6012  0.5111
 5401UDC     C259402  16.336  17.406  10.217 -1.0631  0.7209 -0.3449
 5401UDC     C359403  16.358  17.533  10.136  0.0485 -0.1775 -0.0934
 5401UDC     C459404  16.504  17.601  10.135  0.6118  0.7860 -1.1274
 5401UDC     C559405  16.513  17.734  10.060  0.8671  0.3025 -0.5435
 5401UDC     C659406  16.640  17.813  10.096  0.2074 -0.1379 -0.1185
 5401UDC     C759407  16.729  17.844   9.969 -0.2900 -1.4720  0.4320
 5401UDC     C859408  16.827  17.734   9.934  0.2653 -0.8932  0.7527
 5401UDC     C959409  16.909  17.717   9.800 -0.2582  1.0414  1.2750
 5401UDC    C1059410  16.841  17.645   9.690  0.5891  0.6144 -0.9680
 5401UDC    C1159411  16.694  17.683   9.667 -0.1221  0.1902  0.0930
 5402UDC     C159412   9.105  16.639   5.818 -0.4170 -0.7050 -0.4516
 5402UDC     C259413   9.221  16.546   5.806  0.2112 -0.6188 -0.8448
 5402UDC     C359414   9.321  16.611   5.908 -1.3478 -0.2168 -0.5722
 5402UDC     C459415   9.459  16.557   5.925  0.2529 -0.3606  1.0342
 5402UDC     C559416   9.496  16.623   6.052 -0.4769 -0.8898 -1.4648
 5402UDC     C659417   9.558  16.506   6.130  0.4762  0.2141 -0.2164
 5402UDC     C759418   9.439  16.442   6.213  0.4762 -1.0831  0.7479
 5402UDC     C859419   9.467  16.322   6.298  0.5520  0.1789  0.2372
 5402UDC     C959420   9.442  16.187   6.226  0.1928  0.1245  0.0592
 5402UDC    C1059421   9.462  16.068   6.320 -0.4365  0.1543 -0.0306
 5402UDC    C1159422   9.604  16.073   6.386 -0.0853 -0.4128 -1.1182
 5403UDC     C159423   5.361   5.032   8.310 -0.7570  0.6228 -0.5674
 5403UDC     C259424   5.509   4.981   8.342 -0.0973  0.6147  0.5904
 5403UDC     C359425   5.609   4.965   8.223 -1.1985  0.1709  0.2914
 5403UDC     C459426   5.747   4.885   8.259  0.4957  0.3218 -0.0296
 5403UDC     C559427   5.859   4.852   8.164  0.1540 -0.2223 -0.9083
 5403UDC     C659428   5.826   4.879   8.014 -0.4827  0.0116 -1.2322
 5403UDC     C759429   5.713   4.803   7.938  0.0893  0.2727 -0.0190
 5403UDC     C859430   5.614   4.900   7.868 -0.1950 -0.7742  0.0321
 5403UDC     C959431   5.663   4.938   7.727 -0.7296 -0.1252 -0.0492
 5403UDC    C1059432   5.567   5.019   7.643  0.4802 -0.2602  1.2539
 5403UDC    C1159433   5.601   5.021   7.489 -0.3696  0.9107 -0.4738
 5404UDC     C159434  17.788   2.680  12.320  0.2226 -0.4356 -1.4028
 5404UDC     C259435  17.731   2.752  12.196  0.6266  1.0572 -0.0166
 5404UDC     C359436  17.734   2.669  12.067  0.0277  0.0186  0.3083
 5404UDC     C459437  17.847   2.679  11.961 -0.5757  0.1184 -0.3498
 5404UDC     C559438  17.844   2.804  11.871  0.2411  0.1883  0.5573
 5404UDC     C659439  17.977   2.861  11.850  0.2947 -1.1405 -1.3176
 5404UDC     C759440  18.001   2.964  11.731  0.4364  0.6222  0.3126
 5404UDC     C859441  17.935   3.095  11.766  0.8088 -1.5387 -0.0344
 5404UDC     C959442  17.980   3.214  11.688  0.1339 -0.4481  0.9795
 5404UDC    C1059443  17.873   3.308  11.628 -0.6011  0.3630  0.5286
 5404UDC    C1159444  17.814   3.422  11.711 -1.0522 -0.0789  0.2325
 5405UDC     C159445  19.644   4.067  17.824 -0.4575  0.0185  0.6647
 5405UDC     C259446  19.697   3.953  17.913  0.5671  0.4696  1.5875
 5405UDC     C359447  19.781   3.852  17.839  0.2400  0.1435 -0.7600
 5405UDC     C459448  19.933   3.862  17.861  1.5074  0.9926 -0.1261
 5405UDC     C559449  20.016   3.782  17.764 -1.9725  0.5429  0.0334
 5405UDC     C659450  20.161   3.830  17.768 -0.0617  0.3281 -0.1466
 5405UDC     C759451  20.244   3.730  17.849  0.0705 -0.1428  0.8811
 5405UDC     C859452  20.393   3.721  17.807  0.9960 -0.3905  0.2290
 5405UDC     C959453  20.442   3.604  17.721 -0.3774  0.5157  0.5770
 5405UDC    C1059454  20.589   3.568  17.728 -0.8643 -0.1572 -1.4065
 5405UDC    C1159455  20.677   3.682  17.666  0.4995 -0.9067  1.0517
 5406UDC     C159456   9.925  14.123  15.210 -1.0421 -0.7441  0.6092
 5406UDC     C259457  10.020  14.241  15.198  0.4091 -1.2764 -0.0028
 5406UDC     C359458  10.163  14.211  15.221  0.0499  0.9276 -0.5745
 5406UDC     C459459  10.290  14.302  15.176  0.7831  1.2333 -0.6568
 5406UDC     C559460  10.354  14.289  15.036 -0.1158  0.0762  0.6338
 5406UDC     C659461  10.506  14.311  15.010  0.2543  0.7540  0.3960
 5406UDC     C759462  10.555  14.171  14.966  0.3740  0.6462 -1.0262
 5406UDC     C859463  10.662  14.139  14.858  0.0340 -0.4667  0.0149
 5406UDC     C959464  10.665  13.983  14.836  0.1273 -0.5172  1.2102
 5406UDC    C1059465  10.797  13.925  14.889  0.7531 -0.4666  0.8897
 5406UDC    C1159466  10.804  13.771  14.902 -0.1108  0.3587 -0.1838
 5407UDC     C159467  16.980   7.485  19.072 -0.7748  1.3123 -0.1741
 5407UDC     C259468  16.846   7.427  19.135  0.0681 -0.6749  0.5989
 5407UDC     C359469  16.734   7.394  19.027  0.0008  0.2405  0.3781
 5407UDC     C459470  16.604   7.327  19.082  0.4177 -1.0369 -0.0053
 5407UDC     C559471  16.466   7.411  19.084  0.0783  0.3216 -0.3996
 5407UDC     C659472  16.484   7.541  19.163  0.9236  0.7785  0.2777
 5407UDC     C759473  16.373   7.643  19.150 -0.7856 -0.7217 -0.6592
 5407UDC     C859474  16.233   7.587  19.154  0.8729  0.9864  0.0210
 5407UDC     C959475  16.112   7.682  19.154  0.2985 -0.6874 -0.4017
 5407UDC    C1059476  15.994   7.587  19.166  1.3592  0.7584 -0.0149
 5407UDC    C1159477  15.850   7.639  19.185  0.6290  0.7764 -0.1536
 5408UDC     C159478  17.057   6.823  17.922 -0.8272  0.2432 -0.6297
 5408UDC     C259479  16.925   6.779  17.994  0.1079  0.3770  1.7977
 5408UDC     C359480  16.787   6.840  17.952 -1.1400  0.1334 -1.0961
 5408UDC     C459481  16.735   6.963  18.041 -0.3960 -0.5087  0.2233
 5408UDC     C559482  16.841   7.078  18.004  0.8497  0.9630 -0.1165
 5408UDC     C659483  16.801   7.216  18.057 -0.3889 -0.3337 -0.4938
 5408UDC     C759484  16.758   7.199  18.204 -0.6114  0.9751 -0.1379
 5408UDC     C859485  16.739   7.340  18.270  0.4289 -0.6909  0.3033
 5408UDC     C959486  16.662   7.446  18.175 -0.9250 -0.4420 -0.1344
 5408UDC    C1059487  16.581   7.535  18.269  0.3728  0.6970  0.0743
 5408UDC    C1159488  16.446   7.597  18.216 -0.4714  0.4156 -0.4832
 5409UDC     C159489  18.777  14.725  16.464  0.0496  0.4235 -0.6514
 5409UDC     C259490  18.835  14.613  16.552  0.3345 -0.1469 -0.0497
 5409UDC     C359491  18.719  14.556  16.626 -0.0390 -0.1608  0.8203
 5409UDC     C459492  18.758  14.516  16.771  0.1921 -0.3903 -1.0621
 5409UDC     C559493  18.860  14.399  16.781 -0.0002  1.1674  0.1954
 5409UDC     C659494  18.904  14.333  16.916  0.9002 -0.5422 -0.9032
 5409UDC     C759495  18.925  14.177  16.891  0.4917 -1.0205  0.4372
 5409UDC     C859496  18.962  14.089  17.018 -0.5327 -0.9194 -1.0090
 5409UDC     C959497  19.036  13.956  16.996  0.5375 -0.5544  1.3823
 5409UDC    C1059498  19.130  13.909  17.098 -0.0220 -0.1547 -0.5918
 5409UDC    C1159499  19.211  13.784  17.070 -1.1761  1.4080  0.3259
 5410UDC     C159500  10.694  10.515  16.907  0.3822 -1.6679  0.3499
 5410UDC     C259501  10.777  10.628  16.979  0.0295  1.5438 -0.2846
 5410UDC     C359502  10.755  10.776  16.944 -0.5310  0.6775 -0.1613
 5410UDC     C459503  10.611  10.833  16.963 -0.4254  1.3964  0.7112
 5410UDC     C559504  10.591  10.984  16.925  0.1120  0.7647 -0.3844
 5410UDC     C659505  10.597  11.090  17.042 -0.0528  0.8153  0.0398
 5410UDC     C759506  10.507  11.207  17.033  0.3488 -0.3084 -0.1410
 5410UDC     C859507  10.554  11.307  16.931 -0.0086 -0.3538  0.0775
 5410UDC     C959508  10.661  11.403  16.978 -0.0322 -1.1353 -0.6001
 5410UDC    C1059509  10.748  11.449  16.864 -0.0751 -0.1998  0.9763
 5410UDC    C1159510  10.676  11.538  16.754  0.3554  0.1010  1.1467
 5411UDC     C159511   3.181  17.779   2.157 -1.0478 -0.7911 -0.1402
 5411UDC     C259512   3.027  17.786   2.184  0.6879  0.4735 -0.3786
 5411UDC     C359513   2.994  17.773   2.340  0.1511 -0.2977  0.1795
 5411UDC     C459514   2.859  17.840   2.382 -0.3121 -0.1219 -0.6547
 5411UDC     C559515   2.757  17.782   2.488  0.2757  0.4392  0.3511
 5411UDC     C659516   2.703  17.645   2.444  0.2444 -1.5021  0.1652
 5411UDC     C759517   2.719  17.540   2.551 -0.3807  1.3517 -0.4343
 5411UDC     C859518   2.835  17.439   2.532 -0.5033  1.4238 -0.4557
 5411UDC     C959519   2.825  17.375   2.386  0.5940 -0.8012 -0.6861
 5411UDC    C1059520   2.741  17.248   2.390  0.0151 -0.2078 -0.6790
 5411UDC    C1159521   2.774  17.157   2.267 -0.5694  0.1330 -0.3181
 5412UDC     C159522  10.814  18.552  16.911  0.2945  0.7762 -0.1897
 5412UDC     C259523  10.741  18.475  16.792 -0.6070 -1.0238  0.2331
 5412UDC     C359524  10.717  18.324  16.811  0.6101  0.3995 -0.1333
 5412UDC     C459525  10.603  18.285  16.914 -0.9750 -0.0010 -0.1784
 5412UDC     C559526  10.627  18.129  16.941 -0.7972 -0.1359  0.4014
 5412UDC     C659527  10.522  18.039  17.019  0.0157 -0.5109 -0.2277
 5412UDC     C759528  10.541  17.899  17.064 -0.0684  0.4182  0.0013
 5412UDC     C859529  10.466  17.863  17.193 -1.1604 -0.0205  1.7831
 5412UDC     C959530  10.469  17.714  17.217  0.2755 -0.3935  0.4478
 5412UDC    C1059531  10.429  17.675  17.361  0.8055 -1.5240 -0.1712
 5412UDC    C1159532  10.532  17.722  17.465 -0.1291 -0.4498 -0.9921
 5413UDC     C159533  13.733  17.357   4.265 -0.4193 -0.7680  0.3443
 5413UDC     C259534  13.707  17.486   4.347  0.9347 -0.6536  0.3386
 5413UDC     C359535  13.552  17.497   4.391 -0.8014 -0.1153 -0.2539
 5413UDC     C459536  13.526  17.641   4.437  1.2721 -0.2451  0.2150
 5413UDC     C559537  13.532  17.765   4.335  0.4743  0.4586  0.2005
 5413UDC     C659538  13.468  17.745   4.196  0.1220  0.5542 -1.0814
 5413UDC     C759539  13.411  17.867   4.137  1.0626  0.2790  0.2311
 5413UDC     C859540  13.503  17.956   4.048 -0.0275  0.4962  0.4767
 5413UDC     C959541  13.472  18.112   4.045 -0.8575 -0.7770 -0.7307
 5413UDC    C1059542  13.490  18.181   4.179 -0.2890  0.1339  0.2883
 5413UDC    C1159543  13.551  18.320   4.164 -1.2355 -1.0737  0.3008
 5414UDC     C159544   6.301   8.454  11.938  0.0172  0.5840 -0.1960
 5414UDC     C259545   6.332   8.409  12.080  0.3491  0.2904  0.9917
 5414UDC     C359546   6.272   8.492  12.200 -0.1776 -0.3194 -0.4063
 5414UDC     C459547   6.116   8.504  12.223 -1.0685  0.2819  0.4632
 5414UDC     C559548   6.059   8.648  12.234  0.5674  1.0050  0.6452
 5414UDC     C659549   5.913   8.648  12.280  0.1734 -0.6208 -1.2301
 5414UDC     C759550   5.800   8.652  12.174  0.8159  0.6959 -0.4961
 5414UDC     C859551   5.662   8.633  12.242  0.2938  0.0270  0.2355
 5414UDC     C959552   5.542   8.695  12.155 -0.4104  0.2643  0.2937
 5414UDC    C1059553   5.418   8.645  12.217  0.3917 -0.1196 -0.0381
 5414UDC    C1159554   5.293   8.663  12.135 -0.1068 -0.6481  0.2640
 5415UDC     C159555   1.283  13.506  12.601 -0.5421  0.8570 -0.7227
 5415UDC     C259556   1.364  13.406  12.518  0.3566 -0.1901 -0.7046
 5415UDC     C359557   1.353  13.255  12.561  0.2096 -0.0283 -0.7175
 5415UDC     C459558   1.460  13.173  12.490  0.6408  0.4186  0.0602
 5415UDC     C559559   1.437  13.021  12.466  0.2667 -0.5573  0.1072
 5415UDC     C659560   1.496  12.967  12.331  0.3058 -0.7007 -0.0826
 5415UDC     C759561   1.498  12.820  12.314  0.4724  0.7500 -0.8736
 5415UDC     C859562   1.607  12.729  12.367 -0.3255  0.0001 -0.3441
 5415UDC     C959563   1.565  12.588  12.382 -0.8041 -0.7612  0.7018
 5415UDC    C1059564   1.504  12.515  12.268 -0.6843  1.3358  0.5016
 5415UDC    C1159565   1.443  12.380  12.331 -0.1358 -0.4947  0.3979
 5416UDC     C159566  18.276   2.294   7.677 -0.5158 -1.0016 -0.3334
 5416UDC     C259567  18.235   2.179   7.761 -0.4180  0.6691  0.9080
 5416UDC     C359568  18.198   2.052   7.684 -0.6726 -0.7685  0.3366
 5416UDC     C459569  18.069   2.077   7.613 -0.8867 -0.2403  0.7969
 5416UDC     C559570  17.979   1.970   7.550 -0.3025  0.4411  0.5760
 5416UDC     C659571  17.861   2.033   7.469 -0.3334 -0.7885  0.2094
 5416UDC     C759572  17.726   1.954   7.455 -0.4256 -0.7641 -0.3885
 5416UDC     C859573  17.640   2.023   7.356 -0.2910  1.0467  1.5737
 5416UDC     C959574  17.517   1.945   7.301 -0.4721 -0.4047 -0.3611
 5416UDC    C1059575  17.410   1.938   7.416 -0.1025  1.0947  0.2267
 5416UDC    C1159576  17.385   2.056   7.514 -0.0020 -0.9825  0.2479
 5417UDC     C159577   4.513  17.648   8.780 -0.2333 -1.2018 -0.2051
 5417UDC     C259578   4.532  17.610   8.930  0.0962 -0.7851 -0.8299
 5417UDC     C359579   4.386  17.616   8.993 -0.6503  0.3927 -0.1507
 5417UDC     C459580   4.269  17.561   8.914  0.5753 -1.1351  0.5912
 5417UDC     C559581   4.124  17.552   8.983  0.1747  0.3781 -1.2603
 5417UDC     C659582   4.016  17.499   8.884 -0.2433 -0.2186 -0.4814
 5417UDC     C759583   3.872  17.497   8.935  0.6773  0.3715  0.5592
 5417UDC     C859584   3.781  17.412   8.847  0.2345 -1.2345  1.2652
 5417UDC     C959585   3.805  17.262   8.854 -0.0916  0.4938 -0.1386
 5417UDC    C1059586   3.752  17.198   8.985 -0.4588  1.4382 -0.5087
 5417UDC    C1159587   3.608  17.241   8.980 -0.6844  0.2734  0.7873
 5418UDC     C159588   7.141   8.558   2.227 -0.1625 -0.1575 -0.4163
 5418UDC     C259589   7.022   8.583   2.320  0.7197 -0.0768  0.0641
 5418UDC     C359590   7.015   8.477   2.433 -0.3850  0.9494  0.1495
 5418UDC     C459591   6.965   8.535   2.565  0.4295 -0.4333  0.4723
 5418UDC     C559592   6.910   8.441   2.673  0.6546 -0.4205  0.7077
 5418UDC     C659593   6.818   8.351   2.601 -1.1139  1.2866 -0.2862
 5418UDC     C759594   6.790   8.231   2.691 -0.6615  0.6772  0.0927
 5418UDC     C859595   6.918   8.138   2.689  0.9370 -0.5129 -0.6593
 5418UDC     C959596   6.907   7.992   2.745 -0.1516 -0.8888 -0.9158
 5418UDC    C1059597   7.004   7.881   2.705  0.9323 -0.2407  0.1249
 5418UDC    C1159598   6.980   7.731   2.751  0.4736 -0.0121  0.3350
 5419UDC     C159599  17.253   4.955   3.515  0.7805  0.7162  0.3046
 5419UDC     C259600  17.219   5.019   3.653  0.1201  0.0171  0.2504
 5419UDC     C359601  17.334   5.122   3.664  0.4827 -0.0147  0.0020
 5419UDC     C459602  17.346   5.212   3.542 -0.4545  0.2218  0.3543
 5419UDC     C559603  17.437   5.327   3.576  1.7472 -0.8994 -0.9257
 5419UDC     C659604  17.494   5.423   3.468  0.2814  0.1002  0.5054
 5419UDC     C759605  17.564   5.358   3.343  1.8489 -0.9962 -0.4743
 5419UDC     C859606  17.611   5.460   3.238 -0.4025  0.5262 -0.3079
 5419UDC     C959607  17.529   5.592   3.266 -0.1834  0.0517  0.1479
 5419UDC    C1059608  17.538   5.718   3.177 -0.7164 -0.1925 -0.6138
 5419UDC    C1159609  17.653   5.815   3.202  0.2393 -0.0814  0.3342
 5420UDC     C159610   6.608   8.857  16.097  0.5147  0.5105 -0.1110
 5420UDC     C259611   6.556   8.827  16.241  0.0573  0.3229  1.2747
 5420UDC     C359612   6.675   8.765  16.315 -0.9621  0.0898 -0.0255
 5420UDC     C459613   6.668   8.611  16.342  0.7096 -0.5089  0.8328
 5420UDC     C559614   6.520   8.562  16.375  0.2177 -0.8714  0.0697
 5420UDC     C659615   6.516   8.413  16.401 -0.1512  1.5031 -0.5208
 5420UDC     C759616   6.494   8.382  16.555  0.0661 -0.2993  0.6780
 5420UDC     C859617   6.350   8.383  16.607 -0.3814 -0.2752  0.0840
 5420UDC     C959618   6.333   8.339  16.750  0.6397 -0.3117 -0.2541
 5420UDC    C1059619   6.192   8.303  16.769  0.6300 -0.2005 -0.1672
 5420UDC    C1159620   6.125   8.261  16.902 -0.8093 -0.3035  0.3340
 5421UDC     C159621   0.481  19.036   7.725  0.1348  0.3842  0.0095
 5421UDC     C259622   0.475  19.133   7.605 -1.9883  0.2229  0.9514
 5421UDC     C359623   0.335  19.153   7.562 -0.1259 -0.8067  0.6925
 5421UDC     C459624   0.237  19.190   7.678 -0.0057  0.1466 -0.3080
 5421UDC     C559625   0.084  19.170   7.669 -0.0283 -0.0154 -1.2115
 5421UDC     C659626  -0.015  19.133   7.784 -0.0837 -0.6441  0.3497
 5421UDC     C759627  -0.139  19.056   7.730 -0.5805 -0.5939  0.6893
 5421UDC     C859628  -0.240  19.137   7.643  0.1360 -0.4373  0.5598
 5421UDC     C959629  -0.354  19.180   7.735  0.3551  0.2008 -0.2194
 5421UDC    C1059630  -0.320  19.295   7.829  1.0258  1.1779 -0.7697
 5421UDC    C1159631  -0.423  19.382   7.885  0.8285  0.3067 -0.2818
 5422UDC     C159632  14.920   0.505  16.617 -0.2880  0.2504  0.0389
 5422UDC     C259633  14.831   0.488  16.748 -0.5792 -0.5794  0.1358
 5422UDC     C359634  14.677   0.475  16.728 -0.2193 -0.1747 -0.0573
 5422UDC     C459635  14.628   0.402  16.604 -0.4346  0.7062  0.2913
 5422UDC     C559636  14.480   0.361  16.613  0.4527 -0.4763 -0.6194
 5422UDC     C659637  14.422   0.312  16.751  0.3344 -0.1288  0.9504
 5422UDC     C759638  14.276   0.356  16.796  0.2426 -0.6710 -0.1025
 5422UDC     C859639  14.152   0.336  16.698 -0.4066  0.0417  0.2551
 5422UDC     C959640  14.019   0.376  16.767 -0.4351  0.9515 -0.0646
 5422UDC    C1059641  13.906   0.309  16.694 -0.0910  0.2563 -0.0275
 5422UDC    C1159642  13.768   0.357  16.750 -0.4154 -0.8705 -0.2232
 5423UDC     C159643  14.996  13.993  18.955 -1.0567 -0.2214  1.1188
 5423UDC     C259644  15.112  14.088  19.013 -0.3495  0.8387  0.7947
 5423UDC     C359645  15.259  14.043  18.989  0.3863 -0.8534  0.1515
 5423UDC     C459646  15.348  14.137  19.070 -0.3205  0.2289  0.1294
 5423UDC     C559647  15.492  14.089  19.056 -0.8802 -0.0973  0.9716
 5423UDC     C659648  15.587  14.161  19.152  0.1114  0.6062  0.2361
 5423UDC     C759649  15.732  14.116  19.128 -0.6282  0.3064  0.1951
 5423UDC     C859650  15.834  14.179  19.221 -0.5104  0.0348  0.8223
 5423UDC     C959651  15.813  14.328  19.206  0.1151  0.3330 -0.1664
 5423UDC    C1059652  15.902  14.418  19.303  0.3826 -0.0593 -0.1887
 5423UDC    C1159653  15.852  14.567  19.318 -0.2101  0.0632 -0.2667
 5424UDC     C159654  18.713   4.595   4.877 -0.5995 -1.0517 -0.4518
 5424UDC     C259655  18.624   4.574   5.003 -0.5890  0.0685 -0.8950
 5424UDC     C359656  18.587   4.702   5.083 -0.2856 -0.1563 -0.7275
 5424UDC     C459657  18.542   4.671   5.228  0.4458 -0.0194 -0.0723
 5424UDC     C559658  18.398   4.618   5.231  0.1210  1.1562  0.0586
 5424UDC     C659659  18.335   4.555   5.359 -0.6534  1.4731  1.4920
 5424UDC     C759660  18.186   4.506   5.344 -1.3114  1.3995  0.5421
 5424UDC     C859661  18.167   4.383   5.252  0.6229  0.0839 -0.7018
 5424UDC     C959662  18.268   4.276   5.255 -0.5350 -0.9326  0.4036
 5424UDC    C1059663  18.252   4.174   5.143  0.8893  1.0249  0.0974
 5424UDC    C1159664  18.219   4.247   5.015 -0.6042 -0.0556  0.4930
 5425UDC     C159665   3.783   1.669  16.828 -0.2742  0.2224  0.0467
 5425UDC     C259666   3.685   1.751  16.738  0.1681  0.4217 -0.5152
 5425UDC     C359667   3.680   1.705  16.592  0.3786 -0.1656 -0.1481
 5425UDC     C459668   3.814   1.720  16.511  0.5786  1.1824 -0.9488
 5425UDC     C559669   3.787   1.663  16.378 -0.2423 -0.2019  0.1470
 5425UDC     C659670   3.692   1.776  16.319 -0.3327  0.5683  0.2973
 5425UDC     C759671   3.623   1.744  16.187  0.2698  0.6347 -0.3494
 5425UDC     C859672   3.721   1.671  16.093 -0.1548 -0.2650  0.3339
 5425UDC     C959673   3.683   1.656  15.947 -0.3983 -0.1006 -0.4410
 5425UDC    C1059674   3.801   1.613  15.855  0.6612  0.0859 -0.6585
 5425UDC    C1159675   3.761   1.539  15.729  0.8169  0.1586 -0.2195
 5426UDC     C159676   9.352  10.966   2.211 -0.3476 -0.0021  0.6239
 5426UDC     C259677   9.271  11.086   2.145 -0.5005  0.4067  0.3453
 5426UDC     C359678   9.351  11.162   2.029 -0.6225 -0.3711 -0.8637
 5426UDC     C459679   9.297  11.303   1.997  0.3391  0.1423 -0.0804
 5426UDC     C559680   9.182  11.268   1.905 -0.1912  0.1167  1.7601
 5426UDC     C659681   9.229  11.201   1.770  0.2186  0.1179 -0.5108
 5426UDC     C759682   9.114  11.147   1.671 -0.1545  0.4954 -0.1747
 5426UDC     C859683   9.056  11.011   1.710 -0.7589  0.0123  0.0381
 5426UDC     C959684   8.970  10.970   1.588  0.4264  0.0628  0.1391
 5426UDC    C1059685   8.901  10.837   1.604  0.8985 -0.0826 -0.1118
 5426UDC    C1159686   8.827  10.845   1.736 -0.1040  1.4568 -1.2807
 5427UDC     C159687   2.917   2.660   1.592  0.3775 -0.2955 -1.2040
 5427UDC     C259688   2.932   2.814   1.558  0.6363 -0.0752  0.4055
 5427UDC     C359689   2.837   2.894   1.642 -0.2088 -0.9773  0.2872
 5427UDC     C459690   2.809   3.040   1.593  0.4286 -0.6016  0.2320
 5427UDC     C559691   2.751   3.128   1.703 -0.4397 -0.9624  0.6197
 5427UDC     C659692   2.694   3.258   1.640 -0.0712  0.4818 -0.7123
 5427UDC     C759693   2.631   3.368   1.725  0.4763 -0.4634 -1.0083
 5427UDC     C859694   2.740   3.448   1.790 -0.7269 -0.1972 -0.5712
 5427UDC     C959695   2.683   3.538   1.899  0.2574  0.1296 -0.7978
 5427UDC    C1059696   2.791   3.600   1.985 -1.3218 -0.6909  0.6085
 5427UDC    C1159697   2.724   3.689   2.098  0.0072  0.7642 -0.4390
 5428UDC     C159698   8.351   8.718   0.981  0.4363 -0.3528 -0.1148
 5428UDC     C259699   8.459   8.705   0.868 -0.7351 -0.0982 -1.0791
 5428UDC     C359700   8.406   8.728   0.733  0.3859  0.5261  0.6802
 5428UDC     C459701   8.420   8.874   0.682  0.2207 -0.3396 -0.1947
 5428UDC     C559702   8.343   8.907   0.547 -0.8776 -0.3113 -1.5499
 5428UDC     C659703   8.385   9.037   0.480  0.0097 -1.3245 -0.0840
 5428UDC     C759704   8.354   9.018   0.332 -0.4501 -0.7576  0.2877
 5428UDC     C859705   8.321   9.163   0.284  0.0180  0.5386  0.9821
 5428UDC     C959706   8.181   9.225   0.294 -0.2664 -0.7559 -0.1327
 5428UDC    C1059707   8.167   9.354   0.377  0.7490 -0.6947  0.0405
 5428UDC    C1159708   8.019   9.388   0.415  0.4276 -0.9600  0.4602
 5429UDC     C159709   4.281  10.604   1.746  1.6432 -0.0693 -0.0133
 5429UDC     C259710   4.310  10.596   1.894 -0.2471  0.3043 -0.0214
 5429UDC     C359711   4.202  10.669   1.976  0.6540 -0.1126  0.5328
 5429UDC     C459712   4.077  10.576   1.972 -0.3139 -1.0520  0.2411
 5429UDC     C559713   4.096  10.450   2.051 -1.4781 -0.5023  1.2566
 5429UDC     C659714   4.016  10.463   2.176 -0.4255 -0.5800 -0.0273
 5429UDC     C759715   3.862  10.476   2.150 -0.1283 -0.1884  0.6255
 5429UDC     C859716   3.797  10.353   2.094  0.6846 -0.0275  0.0225
 5429UDC     C959717   3.647  10.326   2.133 -0.0807 -1.1881 -0.8528
 5429UDC    C1059718   3.613  10.185   2.176 -1.0601 -0.1988  0.0720
 5429UDC    C1159719   3.464  10.179   2.223 -0.1719 -0.0277 -1.3089
 5430UDC     C159720  16.291  16.987  17.334  0.2396 -0.6113  0.8310
 5430UDC     C259721  16.350  17.058  17.451  1.0641 -0.4502  0.2156
 5430UDC     C359722  16.308  17.202  17.479 -0.7914 -0.1272  0.1361
 5430UDC     C459723  16.178  17.199  17.556 -0.5165 -0.0879 -0.4643
 5430UDC     C559724  16.128  17.338  17.543 -1.4625 -1.0086 -0.3181
 5430UDC     C659725  16.070  17.375  17.669 -0.2300 -1.4163 -0.1586
 5430UDC     C759726  15.979  17.264  17.714 -1.0327  0.4870  0.0785
 5430UDC     C859727  15.885  17.288  17.839 -0.7865 -0.3748  1.2867
 5430UDC     C959728  15.788  17.184  17.893  1.9317  0.4433  0.7503
 5430UDC    C1059729  15.750  17.232  18.028  0.2103  0.8571 -0.2008
 5430UDC    C1159730  15.625  17.158  18.087 -1.3066 -0.2809  0.7659
 5431UDC     C159731  14.951   8.421  13.907 -0.2042  0.0650 -1.1618
 5431UDC     C259732  15.102   8.392  13.908  0.1548 -0.3802  0.5569
 5431UDC     C359733  15.132   8.342  13.769 -0.4635  0.0549  0.7005
 5431UDC     C459734  15.279   8.361  13.722  0.1135 -0.7923  0.4623
 5431UDC     C559735  15.370   8.251  13.773  0.5410  0.0387 -0.4019
 5431UDC     C659736  15.507   8.239  13.706  0.5756 -1.1598  0.5646
 5431UDC     C759737  15.577   8.100  13.724 -0.0192  0.2252 -0.2101
 5431UDC     C859738  15.492   7.980  13.654 -0.0753 -0.4778 -0.1832
 5431UDC     C959739  15.539   7.832  13.678 -0.4093  0.9690 -0.0122
 5431UDC    C1059740  15.453   7.724  13.603  0.0499 -1.4172  0.1806
 5431UDC    C1159741  15.308   7.715  13.665 -0.7064  0.0995 -0.3720
 5432UDC     C159742  16.178   0.448   8.032 -0.1792  0.7972 -0.2065
 5432UDC     C259743  16.231   0.498   8.168  0.2528  1.1215 -0.8877
 5432UDC     C359744  16.297   0.382   8.252 -0.5831  0.1460 -1.2219
 5432UDC     C459745  16.388   0.422   8.372  0.2840 -1.1739 -0.2927
 5432UDC     C559746  16.511   0.511   8.335 -0.7500  0.2957  0.5798
 5432UDC     C659747  16.624   0.503   8.438 -0.2482 -0.0576 -0.0185
 5432UDC     C759748  16.712   0.626   8.434 -1.0508 -0.1219  1.1958
 5432UDC     C859749  16.865   0.634   8.424 -1.2389  0.5632  0.1535
 5432UDC     C959750  16.914   0.758   8.357  0.9078  0.2401 -0.0564
 5432UDC    C1059751  17.029   0.749   8.257  0.0082 -0.9490 -1.0090
 5432UDC    C1159752  17.034   0.880   8.185  0.4496  0.7126  0.7256
 5433UDC     C159753  18.241   0.879  18.288  0.1465  0.1763 -0.6511
 5433UDC     C259754  18.221   0.999  18.385 -0.2660 -0.0054 -0.3080
 5433UDC     C359755  18.340   1.043  18.473 -0.7149 -0.6467  0.1916
 5433UDC     C459756  18.459   1.102  18.402 -0.5793 -0.3547  0.1161
 5433UDC     C559757  18.537   1.190  18.508  1.0584  0.1923 -0.7839
 5433UDC     C659758  18.508   1.169  18.662 -1.2975  0.0189  0.7349
 5433UDC     C759759  18.630   1.231  18.729 -0.2540  0.5260 -0.3020
 5433UDC     C859760  18.648   1.376  18.665  0.0889 -0.2862 -0.6451
 5433UDC     C959761  18.742   1.452  18.761  0.3309  0.0521  0.1642
 5433UDC    C1059762  18.888   1.424  18.721  0.0498 -0.1403  0.4875
 5433UDC    C1159763  18.946   1.403  18.577  0.2378 -0.5526  0.0218
 5434UDC     C159764  19.562   0.604   6.689 -0.3933 -0.4545  0.7475
 5434UDC     C259765  19.691   0.542   6.715 -0.6077 -0.5096  0.0223
 5434UDC     C359766  19.808   0.613   6.637 -0.3124  0.1701 -0.6851
 5434UDC     C459767  19.846   0.752   6.708 -0.8215  0.3443 -0.4265
 5434UDC     C559768  19.978   0.746   6.793  0.6623 -0.0730  0.5498
 5434UDC     C659769  20.033   0.885   6.831  0.3527 -0.0744 -0.8244
 5434UDC     C759770  20.022   0.981   6.718  0.4705 -1.6641  0.1217
 5434UDC     C859771  20.081   1.122   6.745 -0.2384 -0.7420 -0.6718
 5434UDC     C959772  20.065   1.214   6.619 -0.3591  0.3255 -0.2956
 5434UDC    C1059773  20.065   1.367   6.634 -0.8486 -0.4911  0.0774
 5434UDC    C1159774  19.994   1.443   6.517  0.3677  0.1398  0.3772
 5435UDC     C159775  19.702  19.634   4.589 -0.2361 -0.0915 -0.3386
 5435UDC     C259776  19.832  19.691   4.534 -0.7088  0.1123 -0.3056
 5435UDC     C359777  19.893  19.608   4.418 -0.2571 -0.1976  0.0168
 5435UDC     C459778  20.034  19.640   4.368  0.5378 -0.6412  0.8159
 5435UDC     C559779  20.084  19.573   4.243 -0.0765 -1.0003 -0.8448
 5435UDC     C659780  20.237  19.600   4.228  0.3393 -1.3868  0.3404
 5435UDC     C759781  20.315  19.534   4.114 -1.1000  0.0229  0.5310
 5435UDC     C859782  20.453  19.606   4.099  0.5578 -0.4132  0.0843
 5435UDC     C959783  20.531  19.556   3.973 -0.0818 -0.1497  1.6196
 5435UDC    C1059784  20.655  19.627   3.924 -0.0927  0.2896 -0.5426
 5435UDC    C1159785  20.732  19.528   3.841  0.6850  0.4257 -0.0293
 5436UDC     C159786   9.030  16.023  11.230  0.0081 -0.5683  0.2088
 5436UDC     C259787   9.017  16.078  11.093 -1.2368 -0.7681  0.6418
 5436UDC     C359788   9.153  16.137  11.049  0.7663  0.0784  0.7534
 5436UDC     C459789   9.256  16.024  11.060 -0.7321 -1.0063  0.8067
 5436UDC     C559790   9.404  16.062  11.031 -1.2044  0.1059 -0.4540
 5436UDC     C659791   9.442  16.096  10.890 -0.8955 -1.1912  0.3541
 5436UDC     C759792   9.557  16.003  10.848  1.3020  0.2319 -0.6124
 5436UDC     C859793   9.639  16.078  10.748 -0.0726 -0.6419  0.6119
 5436UDC     C959794   9.718  15.975  10.669 -0.8919 -0.2044  0.8525
 5436UDC    C1059795   9.780  16.021  10.535  0.7010  0.3513  0.9369
 5436UDC    C1159796   9.860  15.926  10.438  1.0351 -0.8324 -0.5344
 5437UDC     C159797  14.292  13.842  13.464  0.3865  0.4883 -0.0531
 5437UDC     C259798  14.170  13.791  13.382  0.1420  0.7839  0.1259
 5437UDC     C359799  14.100  13.898  13.296  0.0395 -0.3865 -0.3453
 5437UDC     C459800  14.024  14.002  13.377 -0.5491 -0.0291 -0.5200
 5437UDC     C559801  13.896  13.948  13.443 -0.0480  0.2719 -0.2951
 5437UDC     C659802  13.871  14.002  13.587 -0.6823  0.0990 -0.7940
 5437UDC     C759803  13.888  14.154  13.596  0.6565  0.0314 -0.5692
 5437UDC     C859804  13.778  14.229  13.519  1.3946 -0.0676  0.4616
 5437UDC     C959805  13.828  14.369  13.492  0.6866  0.6965  0.5707
 5437UDC    C1059806  13.769  14.451  13.374  1.1041 -0.4794  0.0356
 5437UDC    C1159807  13.831  14.593  13.375 -0.3626 -0.7547 -0.0149
 5438UDC     C159808  11.177  18.404   1.027  0.3224  1.1143 -0.8765
 5438UDC     C259809  11.322  18.395   0.977  0.2986 -0.1333  1.1149
 5438UDC     C359810  11.377  18.539   0.937 -0.6095  0.0117 -0.9612
 5438UDC     C459811  11.489  18.576   1.035  0.7769  1.3061 -1.0569
 5438UDC     C559812  11.601  18.653   0.964 -0.0085  0.1445 -0.5597
 5438UDC     C659813  11.570  18.804   0.953  0.0855  0.0726  0.7353
 5438UDC     C759814  11.690  18.883   0.898  0.1251  1.0336 -0.0324
 5438UDC     C859815  11.663  19.033   0.896  0.0537  0.2742 -0.0496
 5438UDC     C959816  11.772  19.131   0.842  0.4278 -0.3980  0.2766
 5438UDC    C1059817  11.718  19.283   0.831  0.0808  0.6879 -0.0080
 5438UDC    C1159818  11.804  19.378   0.744  0.7222 -0.5866 -0.4125
 5439UDC     C159819  16.261   5.870   1.296 -0.3636 -0.3994 -0.8391
 5439UDC     C259820  16.205   5.937   1.429 -1.3431 -0.7724 -0.8392
 5439UDC     C359821  16.062   5.892   1.472 -0.0880 -0.3252  1.2729
 5439UDC     C459822  16.054   5.767   1.558 -0.7106  0.9314  0.8657
 5439UDC     C559823  16.156   5.786   1.670 -0.1438  0.8225  0.4450
 5439UDC     C659824  16.117   5.881   1.786 -0.3519 -0.3065  0.5078
 5439UDC     C759825  16.215   5.945   1.892 -0.4544  1.8566  0.6634
 5439UDC     C859826  16.170   6.062   1.985 -0.7038 -0.1174  1.3536
 5439UDC     C959827  16.137   6.205   1.942 -0.0443 -0.5373  0.2894
 5439UDC    C1059828  16.015   6.243   2.022  0.3452 -0.0278 -0.0499
 5439UDC    C1159829  15.917   6.121   2.012  0.9237 -0.8011 -0.0577
 5440UDC     C159830  17.806   1.089  16.786  0.9115  1.1056  1.0433
 5440UDC     C259831  17.770   1.235  16.777  0.8928 -0.1368 -0.1059
 5440UDC     C359832  17.621   1.265  16.745 -0.0486 -0.4142  0.3637
 5440UDC     C459833  17.578   1.398  16.800 -0.5290 -0.4650  0.4741
 5440UDC     C559834  17.439   1.452  16.755  1.0818 -0.3111 -0.0529
 5440UDC     C659835  17.397   1.396  16.621 -1.4320  0.5400  0.5133
 5440UDC     C759836  17.254   1.423  16.575 -0.7671  0.5799  1.5760
 5440UDC     C859837  17.208   1.352  16.451 -0.6792 -0.1855  0.6775
 5440UDC     C959838  17.269   1.413  16.328  1.2833  0.1813 -0.0827
 5440UDC    C1059839  17.182   1.402  16.201 -0.6175 -0.5203 -0.5827
 5440UDC    C1159840  17.228   1.491  16.083  0.0037  0.2149  0.1983
 5441UDC     C159841  10.618  15.101  10.693  0.9148 -0.1535  0.6882
 5441UDC     C259842  10.701  15.022  10.596 -0.5538 -0.5156  0.4763
 5441UDC     C359843  10.767  15.108  10.490  0.7795 -0.2042  0.0666
 5441UDC     C459844  10.888  15.187  10.522 -0.3131  0.6102 -1.0226
 5441UDC     C559845  10.979  15.247  10.412  0.6153 -0.5217  0.2964
 5441UDC     C659846  11.046  15.143  10.327 -0.4922  0.2903  0.0695
 5441UDC     C759847  11.089  15.228  10.207 -0.1782 -0.0857  0.0158
 5441UDC     C859848  11.221  15.300  10.240 -0.2423  0.2335 -1.0137
 5441UDC     C959849  11.270  15.386  10.128  0.3822 -1.3348  0.4696
 5441UDC    C1059850  11.421  15.409  10.139  1.0399  0.5433  0.2653
 5441UDC    C1159851  11.464  15.456  10.275 -0.9562 -0.2166  0.6746
 5442UDC     C159852  19.380  19.964  16.468 -0.1485  1.6512  0.2953
 5442UDC     C259853  19.281  19.866  16.387  0.0920  0.1278  0.5446
 5442UDC     C359854  19.281  19.886  16.235  0.4043 -0.7175 -0.3371
 5442UDC     C459855  19.144  19.879  16.171 -0.8591  0.0215 -0.1958
 5442UDC     C559856  19.155  19.877  16.015  0.1736 -0.7971  0.2187
 5442UDC     C659857  19.022  19.887  15.938 -0.3669 -0.0167  0.0764
 5442UDC     C759858  19.015  19.973  15.804  0.1781  0.0173 -0.3694
 5442UDC     C859859  19.134  19.983  15.706  0.1614  0.1166  0.4228
 5442UDC     C959860  19.130  20.082  15.585  0.7101 -1.1933 -1.0410
 5442UDC    C1059861  19.171  20.222  15.624  1.0593 -0.1431 -0.3966
 5442UDC    C1159862  19.286  20.228  15.721  0.0700 -0.4042  0.5491
 5443UDC     C159863   2.282   4.825   9.571  0.7468 -0.6249  0.0439
 5443UDC     C259864   2.215   4.693   9.607  0.7458  1.1977 -0.2094
 5443UDC     C359865   2.193   4.640   9.751  0.6120 -1.0260  0.2796
 5443UDC     C459866   2.313   4.671   9.835 -0.0811  0.6288 -0.9662
 5443UDC     C559867   2.292   4.596   9.969 -0.0679  0.4966 -0.5467
 5443UDC     C659868   2.237   4.459   9.949  0.2598 -0.2363  0.0572
 5443UDC     C759869   2.192   4.383  10.077  0.6024 -0.1132  0.5472
 5443UDC     C859870   2.233   4.234  10.071  0.0735  0.7420  0.5320
 5443UDC     C959871   2.121   4.134  10.113 -0.0588  0.2863  0.4913
 5443UDC    C1059872   2.172   4.030  10.210 -0.8313 -0.0010  0.0570
 5443UDC    C1159873   2.157   3.889  10.147  0.6822 -0.3123 -0.0052
 5444UDC     C159874  14.943  14.765  12.806  0.8387  0.2315 -0.4175
 5444UDC     C259875  14.841  14.803  12.698  0.9981 -0.1206  1.1283
 5444UDC     C359876  14.833  14.689  12.597  0.4038  0.2770 -1.1750
 5444UDC     C459877  14.780  14.747  12.468  0.5355  0.0560  0.3119
 5444UDC     C559878  14.762  14.656  12.345  1.0160 -0.3065  0.9262
 5444UDC     C659879  14.886  14.598  12.284 -0.1207  1.2778 -0.6509
 5444UDC     C759880  14.832  14.518  12.163  0.4977  0.1143  0.2778
 5444UDC     C859881  14.817  14.610  12.037 -1.0262  0.4187 -1.4005
 5444UDC     C959882  14.718  14.551  11.935 -0.1330 -0.5732  0.0374
 5444UDC    C1059883  14.572  14.560  12.001 -0.5156 -0.0847 -0.9014
 5444UDC    C1159884  14.541  14.716  12.011  0.0141 -1.0702 -0.2636
 5445UDC     C159885   7.949  11.046  13.883 -0.6743  0.5062  0.6731
 5445UDC     C259886   7.900  11.111  13.754  0.2533 -0.6147 -0.4782
 5445UDC     C359887   7.973  11.073  13.621  0.3418 -0.0317 -0.0509
 5445UDC     C459888   7.861  11.034  13.515 -0.1315  0.2967  0.9911
 5445UDC     C559889   7.804  10.893  13.540  0.7628  0.4883  0.3596
 5445UDC     C659890   7.690  10.872  13.436  0.4732 -0.8666  0.1892
 5445UDC     C759891   7.731  10.831  13.296  0.4406  0.3978 -0.1922
 5445UDC     C859892   7.634  10.825  13.172 -0.7581 -0.7266 -0.8054
 5445UDC     C959893   7.681  10.750  13.043  0.6572 -0.0668  0.8981
 5445UDC    C1059894   7.772  10.839  12.965  0.7457  0.0453  0.7400
 5445UDC    C1159895   7.816  10.769  12.837 -0.0449  0.4226 -0.6342
 5446UDC     C159896  19.359  10.560   1.704  0.3032  0.7072 -0.7214
 5446UDC     C259897  19.275  10.443   1.765  1.0015 -0.3970 -0.1913
 5446UDC     C359898  19.338  10.362   1.876  0.2792  0.8833  0.6828
 5446UDC     C459899  19.447  10.257   1.842 -0.1617  0.1590  0.2540
 5446UDC     C559900  19.499  10.202   1.979  0.0205 -0.3202  0.3955
 5446UDC     C659901  19.479  10.302   2.095  0.9799 -0.3105  0.1086
 5446UDC     C759902  19.427  10.223   2.219  0.5089 -0.8928 -1.0032
 5446UDC     C859903  19.273  10.228   2.226 -0.3364  1.0120  0.1301
 5446UDC     C959904  19.199  10.107   2.280  0.2683 -0.6053 -0.9039
 5446UDC    C1059905  19.227   9.959   2.238  0.5220  0.5118 -0.6127
 5446UDC    C1159906  19.152   9.844   2.295  0.9736 -0.4714  0.5681
 5447UDC     C159907  16.113   6.240  15.402 -0.1150  0.4061  0.0734
 5447UDC     C259908  16.216   6.353  15.425  0.9919 -0.4178 -0.1651
 5447UDC     C359909  16.282   6.400  15.297 -0.0375  0.2545  0.2501
 5447UDC     C459910  16.404   6.476  15.346  0.5912  0.1065 -0.7442
 5447UDC     C559911  16.500   6.545  15.238 -0.4192  1.2280  0.2478
 5447UDC     C659912  16.423   6.607  15.126 -0.4032 -0.4709  0.6623
 5447UDC     C759913  16.377   6.745  15.175 -0.9244 -0.3176 -0.4498
 5447UDC     C859914  16.491   6.839  15.218 -1.1526 -0.0451 -0.0604
 5447UDC     C959915  16.435   6.967  15.284  0.7002  0.3724  0.1294
 5447UDC    C1059916  16.409   6.960  15.432  0.1725  0.5873 -1.1735
 5447UDC    C1159917  16.434   7.099  15.488 -0.6625 -0.2109 -0.1783
 5448UDC     C159918  16.665   3.101   6.278  0.1481 -0.4764 -0.1739
 5448UDC     C259919  16.649   3.025   6.149  1.1518  0.5235  1.0171
 5448UDC     C359920  16.517   2.949   6.149 -1.3818  0.0892 -0.8653
 5448UDC     C459921  16.503   2.874   6.015  0.4170  0.0153  0.6904
 5448UDC     C559922  16.401   2.759   6.031 -0.4662  0.3533  0.6322
 5448UDC     C659923  16.472   2.646   5.963  0.5109  0.0446 -0.2789
 5448UDC     C759924  16.385   2.599   5.841 -0.0758 -0.4326 -0.7441
 5448UDC     C859925  16.442   2.466   5.788  0.8454  0.1185  1.0699
 5448UDC     C959926  16.555   2.502   5.681 -0.0368  0.9903  0.4974
 5448UDC    C1059927  16.595   2.384   5.587  0.9056 -0.9874 -0.0918
 5448UDC    C1159928  16.501   2.339   5.475  1.1714 -1.1150 -0.3568
 5449UDC     C159929  19.690  16.473  19.094  0.1391 -0.6742  0.6484
 5449UDC     C259930  19.554  16.521  19.027 -0.0720 -0.0727  0.0879
 5449UDC     C359931  19.462  16.607  19.108  0.4823  0.7439 -0.6127
 5449UDC     C459932  19.473  16.756  19.099  0.5015 -0.7887  0.9645
 5449UDC     C559933  19.476  16.821  18.955  0.5083 -0.2782  1.4923
 5449UDC     C659934  19.437  16.966  18.948 -0.0641  0.4633 -0.1358
 5449UDC     C759935  19.399  17.027  18.814 -0.3337 -0.6375  1.2643
 5449UDC     C859936  19.406  17.180  18.816 -0.6013  0.1678  0.1518
 5449UDC     C959937  19.312  17.220  18.932  0.3064  0.0218  0.2245
 5449UDC    C1059938  19.300  17.370  18.974  0.4882  0.3604 -0.8785
 5449UDC    C1159939  19.160  17.368  19.042 -0.2558  0.7957 -0.3561
 5450UDC     C159940  11.325  16.625  19.520 -0.0434  0.7986  0.0249
 5450UDC     C259941  11.186  16.616  19.581  0.5450 -0.6234  0.1405
 5450UDC     C359942  11.126  16.748  19.633 -0.0541  0.9026 -0.3142
 5450UDC     C459943  11.104  16.852  19.523 -0.4693  0.0150 -1.0517
 5450UDC     C559944  10.994  16.828  19.425 -0.4575 -0.5446  0.1906
 5450UDC     C659945  10.852  16.841  19.469 -0.3629  0.8133 -0.1362
 5450UDC     C759946  10.760  16.871  19.351  0.1891  0.3907 -0.6186
 5450UDC     C859947  10.608  16.890  19.363  0.8935  0.3025  0.4299
 5450UDC     C959948  10.575  17.044  19.363  0.1459  0.2854  0.0362
 5450UDC    C1059949  10.516  17.082  19.499 -0.1456  0.0409  0.0187
 5450UDC    C1159950  10.381  17.001  19.523 -0.1682 -0.2714  0.6489
 5451UDC     C159951  12.334   8.613   9.857  0.0388 -0.3127  0.2748
 5451UDC     C259952  12.260   8.570   9.726  0.3669 -1.1571 -0.2650
 5451UDC     C359953  12.326   8.572   9.586 -0.9055  0.2218  0.2629
 5451UDC     C459954  12.271   8.683   9.498 -0.6762 -0.9048  0.6421
 5451UDC     C559955  12.151   8.745   9.563  0.8873  0.3966  0.7489
 5451UDC     C659956  12.086   8.856   9.483  0.4756  0.0417  0.0535
 5451UDC     C759957  11.964   8.918   9.555  0.0919 -0.5313 -0.1477
 5451UDC     C859958  12.013   8.951   9.695 -0.2917  1.3878 -0.7010
 5451UDC     C959959  11.908   9.010   9.792 -0.5654 -0.4552 -0.2571
 5451UDC    C1059960  11.773   8.947   9.771  0.2165 -1.1458 -0.1565
 5451UDC    C1159961  11.672   8.974   9.881  0.6569  0.6338 -0.5717
 5452UDC     C159962  12.324  17.037   9.033  0.9343  0.5031  1.4210
 5452UDC     C259963  12.304  17.187   9.000  1.2326  0.3075  0.5646
 5452UDC     C359964  12.308  17.225   8.851  0.4391  0.9262  0.9316
 5452UDC     C459965  12.234  17.351   8.791 -0.0148 -0.0958 -0.5935
 5452UDC     C559966  12.272  17.395   8.643 -0.5378 -0.8930 -1.1033
 5452UDC     C659967  12.217  17.540   8.630 -1.0634  0.5166 -0.2995
 5452UDC     C759968  12.068  17.560   8.653  0.0608  0.2939 -1.0526
 5452UDC     C859969  12.029  17.705   8.663  0.8586 -0.5961 -0.4732
 5452UDC     C959970  12.069  17.788   8.787 -0.7546  0.5336  0.7702
 5452UDC    C1059971  12.009  17.743   8.922  0.7196  0.4180  0.1024
 5452UDC    C1159972  12.103  17.747   9.049 -0.0835  0.7652  1.3701
 5453UDC     C159973   7.728   4.291  14.561  0.1780 -0.5613 -0.2882
 5453UDC     C259974   7.711   4.436  14.507 -0.9157 -0.0297  0.4705
 5453UDC     C359975   7.629   4.453  14.380  0.8618  0.2085 -0.0617
 5453UDC     C459976   7.633   4.600  14.351 -1.7498  0.0913  0.5591
 5453UDC     C559977   7.679   4.606  14.206  0.2173 -1.0654  0.2742
 5453UDC     C659978   7.686   4.749  14.144 -0.6968  1.0004  0.9374
 5453UDC     C759979   7.542   4.794  14.124 -0.2141 -0.4933  0.1936
 5453UDC     C859980   7.509   4.909  14.028  0.4130  0.0171 -0.3579
 5453UDC     C959981   7.563   4.887  13.887  0.3008  0.8166  0.4918
 5453UDC    C1059982   7.448   4.910  13.787  1.2958 -0.6001 -0.1486
 5453UDC    C1159983   7.492   4.859  13.650 -0.3918 -1.0580 -0.2549
 5454UDC     C159984  10.196   9.900  17.055 -0.2676 -0.6381  0.5403
 5454UDC     C259985  10.166   9.813  16.941  0.9887  0.1749 -0.1473
 5454UDC     C359986  10.223   9.861  16.802  0.2248 -0.1287 -0.1070
 5454UDC     C459987  10.148   9.809  16.667 -0.2345  0.5949  0.0002
 5454UDC     C559988  10.156   9.660  16.638 -0.3376 -0.0570 -0.8800
 5454UDC     C659989  10.059   9.575  16.725  0.8497 -0.5532 -0.4940
 5454UDC     C759990   9.916   9.602  16.664  1.5906 -0.2342 -0.2281
 5454UDC     C859991   9.841   9.467  16.626 -0.1814 -0.2269 -0.1672
 5454UDC     C959992   9.934   9.368  16.545 -0.1064  0.9249  0.6290
 5454UDC    C1059993   9.872   9.299  16.422  0.3582  0.6455  0.0428
 5454UDC    C1159994   9.830   9.409  16.336  0.4387 -0.2604  0.1833
 5455UDC     C159995  16.411  12.020  18.792 -0.9978 -0.4221 -0.6497
 5455UDC     C259996  16.349  12.033  18.934  0.7534  0.1543 -0.7206
 5455UDC     C359997  16.393  11.916  19.014  0.6374  0.2286  0.2721
 5455UDC     C459998  16.546  11.899  19.014  0.7020  0.4962 -1.4505
 5455UDC     C559999  16.595  11.782  19.104 -0.5591  0.4767 -0.7249
 5455UDC     C660000  16.736  11.717  19.079  0.3022  1.6270  0.1059
 5455UDC     C760001  16.813  11.639  19.185  0.2320  0.3283 -0.4492
 5455UDC     C860002  16.925  11.546  19.132  0.2690  0.5000  0.4807
 5455UDC     C960003  16.898  11.496  18.983  0.4219  0.0889  0.6627
 5455UDC    C1060004  16.843  11.360  18.977  0.1522  1.2350  0.5537
 5455UDC    C1160005  16.927  11.246  19.016 -0.6572 -0.3411  0.5386
 5456UDC     C160006   9.506  14.924  13.761  1.3520 -0.0049  1.1885
 5456UDC     C260007   9.427  15.030  13.838 -0.7455 -0.8229  0.6274
 5456UDC     C360008   9.515  15.148  13.891 -0.0921 -0.6469  0.1557
 5456UDC     C460009   9.585  15.246  13.786 -0.5824  0.9683  0.5854
 5456UDC     C560010   9.504  15.317  13.675  1.0510  0.2316 -1.1662
 5456UDC     C660011   9.592  15.420  13.590  0.8666  0.6666  0.1613
 5456UDC     C760012   9.489  15.479  13.491 -0.7644 -0.3041 -0.3026
 5456UDC     C860013   9.397  15.599  13.539  0.3773  0.3104  0.0942
 5456UDC     C960014   9.445  15.658  13.670 -0.1868  0.1343  0.0347
 5456UDC    C1060015   9.357  15.621  13.790  0.0949  0.4923  0.2072
 5456UDC    C1160016   9.379  15.680  13.931 -0.9326  0.4872 -0.5059
 5457UDC     C160017   9.293   7.356  19.855 -0.9568  0.8136  0.5109
 5457UDC     C260018   9.432   7.350  19.786  0.5794  0.3224  0.5428
 5457UDC     C360019   9.479   7.475  19.705  1.3607  0.6568 -0.7406
 5457UDC     C460020   9.631   7.496  19.678  0.2076  0.1840  0.2854
 5457UDC     C560021   9.653   7.592  19.562 -0.2923  0.7645 -1.3631
 5457UDC     C660022   9.805   7.609  19.546 -0.3281  0.8833 -0.8529
 5457UDC     C760023   9.826   7.701  19.421  0.0869 -0.2048  0.1144
 5457UDC     C860024   9.974   7.712  19.396 -0.3597 -1.0881 -0.0018
 5457UDC     C960025  10.024   7.584  19.331  0.8834  0.0125 -0.7173
 5457UDC    C1060026  10.152   7.615  19.253 -0.5494 -0.7840 -0.1757
 5457UDC    C1160027  10.128   7.702  19.128  0.8189  0.2364 -0.3030
 5458UDC     C160028   4.556   3.863  10.066  0.5832 -0.8808 -0.3830
 5458UDC     C260029   4.593   3.783  10.193 -1.2717 -1.3009 -0.0521
 5458UDC     C360030   4.666   3.851  10.312  0.1001 -0.4105 -0.4636
 5458UDC     C460031   4.818   3.866  10.277  0.7205  0.6949 -0.3310
 5458UDC     C560032   4.825   4.001  10.205  0.4581  0.0083 -0.4735
 5458UDC     C660033   4.967   4.034  10.163 -0.0897 -0.4096  0.5557
 5458UDC     C760034   5.051   3.959  10.060 -0.1448  0.1017  0.2516
 5458UDC     C860035   5.192   4.014  10.063  0.4674 -0.4478 -0.4775
 5458UDC     C960036   5.279   3.967   9.952  0.4071  0.2284 -0.7634
 5458UDC    C1060037   5.427   4.023   9.963  0.3845  0.3896  1.0716
 5458UDC    C1160038   5.478   4.019  10.107 -0.0990 -0.7294  0.0555
 5459UDC     C160039   0.343   9.693   9.907 -0.2594  1.4431 -0.1049
 5459UDC     C260040   0.340   9.758  10.047 -0.7310  0.4140  0.0132
 5459UDC     C360041   0.202   9.771  10.113 -0.3672  0.5127 -0.1738
 5459UDC     C460042   0.188   9.822  10.255  0.5866  0.1977 -0.6980
 5459UDC     C560043   0.273   9.944  10.288  0.0666  0.6268  0.1764
 5459UDC     C660044   0.282   9.991  10.437  0.1286  0.1880 -0.2370
 5459UDC     C760045   0.401  10.076  10.474 -0.2300  0.7814  0.4195
 5459UDC     C860046   0.399  10.167  10.594 -1.1046  0.1611  0.1524
 5459UDC     C960047   0.280  10.267  10.598 -1.1201 -1.0771 -0.1574
 5459UDC    C1060048   0.314  10.390  10.693 -0.5403  0.1425 -1.4423
 5459UDC    C1160049   0.361  10.355  10.835 -0.6014 -0.6287  0.5165
 5460UDC     C160050  15.553  15.087  17.300 -0.7616  0.0971 -0.7632
 5460UDC     C260051  15.447  15.169  17.226  0.6737  0.0163 -0.1881
 5460UDC     C360052  15.490  15.284  17.140  0.6285  0.0427 -0.8612
 5460UDC     C460053  15.375  15.376  17.095  0.5906 -0.4680 -0.1201
 5460UDC     C560054  15.420  15.515  17.036 -0.6982 -0.6679 -0.2392
 5460UDC     C660055  15.488  15.599  17.141  0.0692 -0.3745 -0.4742
 5460UDC     C760056  15.541  15.726  17.075  1.4481 -1.3230  0.7427
 5460UDC     C860057  15.457  15.797  16.964 -0.2404 -0.1872 -0.6530
 5460UDC     C960058  15.529  15.926  16.903 -0.3324  0.2982 -0.0460
 5460UDC    C1060059  15.486  15.967  16.760  1.1636  0.4464 -0.2591
 5460UDC    C1160060  15.566  16.074  16.690  1.5754 -1.0581  0.8143
 5461UDC     C160061   2.098   0.002  11.458  0.9148 -0.4164  1.1808
 5461UDC     C260062   2.150   0.002  11.315  0.6314  0.5811 -0.4472
 5461UDC     C360063   2.286  -0.071  11.337 -0.3905  0.8220 -0.8816
 5461UDC     C460064   2.321  -0.171  11.222  0.6395 -0.2968 -0.4310
 5461UDC     C560065   2.338  -0.319  11.260 -0.2575 -0.1717 -0.4765
 5461UDC     C660066   2.310  -0.418  11.140  0.3702  1.3049 -0.2638
 5461UDC     C760067   2.367  -0.415  11.001 -1.0047 -0.2254  0.5591
 5461UDC     C860068   2.403  -0.561  10.962  0.1973  0.7717  1.0617
 5461UDC     C960069   2.462  -0.597  10.819 -0.0153  0.5843  0.3376
 5461UDC    C1060070   2.354  -0.570  10.719  0.3092  0.1195  0.1710
 5461UDC    C1160071   2.313  -0.706  10.656  0.0879 -0.7550 -1.1197
 5462UDC     C160072  19.352   2.481   2.526  0.6099 -0.0836  0.1892
 5462UDC     C260073  19.211   2.467   2.603 -1.0901  0.0991 -0.4097
 5462UDC     C360074  19.158   2.327   2.626 -1.0376  0.2299 -1.3150
 5462UDC     C460075  19.125   2.264   2.496  0.2873 -0.4029  0.1576
 5462UDC     C560076  19.153   2.112   2.497 -0.0958  0.8032  0.6417
 5462UDC     C660077  19.075   2.062   2.371  0.5317 -0.5076 -0.2595
 5462UDC     C760078  19.156   1.976   2.273  0.2442  0.2178 -0.4859
 5462UDC     C860079  19.212   1.838   2.329 -0.7973  0.6745 -0.6474
 5462UDC     C960080  19.092   1.763   2.381 -0.0793 -0.2911  0.2583
 5462UDC    C1060081  19.133   1.632   2.442  0.3223  0.2803 -0.5651
 5462UDC    C1160082  19.155   1.522   2.340  0.3249 -0.0173  0.1093
 5463UDC     C160083   9.488   6.353  11.419  0.2617 -0.9440 -1.0124
 5463UDC     C260084   9.473   6.230  11.513  0.3019  0.5026 -1.5155
 5463UDC     C360085   9.359   6.202  11.611  0.6000  0.5469 -0.1772
 5463UDC     C460086   9.208   6.181  11.570  0.0924  1.0245  0.6712
 5463UDC     C560087   9.111   6.155  11.682 -1.0340 -0.9609  0.6749
 5463UDC     C660088   9.078   6.273  11.783 -0.3823  0.1863 -0.2234
 5463UDC     C760089   9.115   6.222  11.923  0.4382 -0.7708 -0.4747
 5463UDC     C860090   9.035   6.266  12.050  0.0021  0.0596  0.5397
 5463UDC     C960091   9.096   6.212  12.184  0.6235  0.5881 -0.0692
 5463UDC    C1060092   9.095   6.300  12.305 -0.0153 -1.7843  0.7748
 5463UDC    C1160093   9.117   6.218  12.440 -1.2791 -0.9731  0.1728
 5464UDC     C160094   0.460   9.280   2.093 -0.2142 -0.9531 -0.2681
 5464UDC     C260095   0.322   9.243   2.038  0.8712  0.5102  0.0397
 5464UDC     C360096   0.246   9.272   2.168 -1.1490  0.3522  0.1288
 5464UDC     C460097   0.111   9.343   2.144  1.2083  0.6097 -1.1897
 5464UDC     C560098   0.077   9.404   2.286  0.5750 -0.1528 -0.2308
 5464UDC     C660099  -0.063   9.461   2.282 -0.1334 -0.7831  0.7066
 5464UDC     C760100  -0.101   9.496   2.425 -0.8981  0.4624 -0.4235
 5464UDC     C860101  -0.057   9.636   2.467 -0.1055 -0.8981  0.0421
 5464UDC     C960102   0.017   9.632   2.610 -0.4230 -0.6842 -0.0150
 5464UDC    C1060103   0.116   9.746   2.643  0.2023  0.6902 -0.0377
 5464UDC    C1160104   0.178   9.720   2.787 -0.2433  0.0757 -0.0129
 5465UDC     C160105  16.832  10.991  14.691  1.4510  1.2658  0.2191
 5465UDC     C260106  16.816  11.101  14.589  0.0976 -0.6680 -0.6384
 5465UDC     C360107  16.762  11.061  14.448  0.6146 -0.9623  0.0652
 5465UDC     C460108  16.721  11.187  14.372 -0.0734 -0.2793 -0.2282
 5465UDC     C560109  16.581  11.243  14.415  0.2387 -0.4626 -0.2008
 5465UDC     C660110  16.448  11.203  14.355 -0.2842  1.3786  0.2135
 5465UDC     C760111  16.328  11.245  14.441 -0.6381  0.9221 -0.9499
 5465UDC     C860112  16.306  11.154  14.568  0.1451  0.3217 -0.2423
 5465UDC     C960113  16.266  11.009  14.556  1.2766  0.8004  0.7072
 5465UDC    C1060114  16.270  10.929  14.681  0.4784 -1.1385  0.0920
 5465UDC    C1160115  16.179  10.815  14.616  0.0337 -0.5401  0.5301
 5466UDC     C160116   3.970  15.072  19.558  0.1522 -1.3320  0.1682
 5466UDC     C260117   3.933  15.089  19.701 -0.2764 -0.3663 -0.8282
 5466UDC     C360118   3.776  15.105  19.711  0.6896 -0.1224  0.7586
 5466UDC     C460119   3.729  15.178  19.838  0.0594 -0.5107 -0.2349
 5466UDC     C560120   3.576  15.170  19.866  0.4054 -0.9708  1.3439
 5466UDC     C660121   3.510  15.238  19.985  0.2102 -0.0413 -0.2599
 5466UDC     C760122   3.601  15.239  20.106 -0.3196 -1.2116  1.7476
 5466UDC     C860123   3.641  15.380  20.145 -0.2523  0.6480 -0.5280
 5466UDC     C960124   3.680  15.396  20.293  1.2607  0.4146  0.1972
 5466UDC    C1060125   3.565  15.387  20.397  0.1193 -0.2849  0.7788
 5466UDC    C1160126   3.599  15.436  20.539 -0.0008 -0.4150 -0.5604
 5467UDC     C160127  13.147  19.378  10.948  0.1298  0.6051  0.1862
 5467UDC     C260128  13.187  19.227  10.937 -0.7809 -0.2393 -0.1284
 5467UDC     C360129  13.079  19.164  10.850  0.4465  0.4653  0.7065
 5467UDC     C460130  13.131  19.035  10.790 -0.1767 -0.4653 -0.2042
 5467UDC     C560131  13.264  19.040  10.715  0.7391 -0.6515 -0.4323
 5467UDC     C660132  13.258  19.066  10.566  0.3227 -0.8662  0.6273
 5467UDC     C760133  13.355  19.168  10.502  0.2563 -0.0983 -0.0826
 5467UDC     C860134  13.329  19.147  10.348  0.2476 -0.9819  0.3547
 5467UDC     C960135  13.336  19.266  10.257  1.5444 -0.0760 -1.2500
 5467UDC    C1060136  13.384  19.228  10.116 -1.0705  0.0056 -0.2214
 5467UDC    C1160137  13.361  19.083  10.053 -1.1733  0.3770  0.4684
 5468UDC     C160138  13.492  15.456   9.563 -0.7648  0.1938 -0.9439
 5468UDC     C260139  13.503  15.561   9.459 -0.4233  0.4563 -0.5102
 5468UDC     C360140  13.379  15.644   9.431  0.5435 -0.5951 -0.5414
 5468UDC     C460141  13.405  15.795   9.402  1.5146 -0.2273  0.0922
 5468UDC     C560142  13.458  15.803   9.259 -0.7104 -0.8168  0.6494
 5468UDC     C660143  13.486  15.945   9.204 -0.1984  0.2014  0.1057
 5468UDC     C760144  13.552  15.948   9.066  0.0698  0.6203 -0.6323
 5468UDC     C860145  13.537  16.088   8.995  0.3270  0.4619 -0.8134
 5468UDC     C960146  13.422  16.103   8.897  0.0382  1.3183  0.3619
 5468UDC    C1060147  13.427  16.017   8.772  1.5200  0.5384  0.7366
 5468UDC    C1160148  13.350  16.077   8.647  0.9840 -0.4637  0.1161
 5469UDC     C160149  19.943   4.483   4.303  0.0097  0.1626 -1.0166
 5469UDC     C260150  20.013   4.425   4.432 -0.2126 -1.3919 -0.0797
 5469UDC     C360151  20.097   4.299   4.410 -1.2018  0.3390  0.9034
 5469UDC     C460152  20.183   4.267   4.534 -1.4132 -0.2184 -1.0233
 5469UDC     C560153  20.317   4.344   4.557 -0.1650 -0.8300  0.4232
 5469UDC     C660154  20.373   4.378   4.418  1.1477  0.1350  0.4556
 5469UDC     C760155  20.411   4.529   4.404  0.7523  0.7291  0.3231
 5469UDC     C860156  20.532   4.523   4.303  0.0605 -0.1993  0.3093
 5469UDC     C960157  20.474   4.446   4.180  0.8195  0.4287 -0.7748
 5469UDC    C1060158  20.359   4.535   4.126 -0.2872  0.1365 -0.0110
 5469UDC    C1160159  20.266   4.497   4.006  0.4287  0.2424 -1.1887
 5470UDC     C160160  14.330   9.319  14.342 -0.3223  0.3824 -0.3940
 5470UDC     C260161  14.182   9.339  14.297  0.5631  0.4022  0.2155
 5470UDC     C360162  14.158   9.478  14.244  1.0431  1.7374 -0.9026
 5470UDC     C460163  14.156   9.592  14.343 -1.2396 -0.6170 -0.2377
 5470UDC     C560164  14.032   9.588  14.436 -0.5692 -0.8120  0.3078
 5470UDC     C660165  14.043   9.701  14.537  0.2887 -0.0011 -0.5824
 5470UDC     C760166  14.184   9.712  14.596  0.1247  0.2892  0.2436
 5470UDC     C860167  14.205   9.795  14.725 -0.0166 -0.3022 -0.8258
 5470UDC     C960168  14.100   9.735  14.827  0.1249 -0.4434  0.4045
 5470UDC    C1060169  14.126   9.591  14.873  0.7203  0.2697  0.7881
 5470UDC    C1160170  14.026   9.553  14.979  1.1523 -0.9491  0.6667
 5471UDC     C160171  16.825   4.119   4.133 -0.7362  0.0776 -1.0235
 5471UDC     C260172  16.726   4.128   4.016 -0.3455 -0.1896  0.5331
 5471UDC     C360173  16.636   4.005   3.985  0.1503 -1.0770  0.1835
 5471UDC     C460174  16.714   3.884   3.927  0.0365 -0.3709  0.8776
 5471UDC     C560175  16.622   3.763   3.918  0.5934 -0.9022 -0.7314
 5471UDC     C660176  16.659   3.665   3.814  0.4060 -1.1615 -0.2894
 5471UDC     C760177  16.595   3.525   3.826  0.3567 -0.6793  0.0809
 5471UDC     C860178  16.560   3.494   3.683  0.1457 -0.6971  0.2650
 5471UDC     C960179  16.464   3.372   3.665 -0.2783  0.4332  0.0403
 5471UDC    C1060180  16.452   3.310   3.523 -0.3177  0.5394 -0.5989
 5471UDC    C1160181  16.343   3.205   3.502 -0.5090 -0.8837 -1.3413
 5472UDC     C160182  19.144  17.752   1.578  0.2554 -0.7574  0.5752
 5472UDC     C260183  19.217  17.735   1.716  0.6240  0.3314  0.4801
 5472UDC     C360184  19.371  17.717   1.715  0.0782  0.1080  0.1444
 5472UDC     C460185  19.446  17.728   1.848 -2.2518  0.0944 -0.8821
 5472UDC     C560186  19.392  17.626   1.956 -0.0549  1.0685 -0.3482
 5472UDC     C660187  19.402  17.476   1.917 -1.0150  0.9569 -0.4771
 5472UDC     C760188  19.413  17.385   2.037 -0.0590  0.4819 -0.2136
 5472UDC     C860189  19.470  17.250   1.992 -0.2561 -0.6003  0.3284
 5472UDC     C960190  19.375  17.136   2.026 -0.5949  0.1056  0.5417
 5472UDC    C1060191  19.384  16.991   1.976  0.2031 -0.9207  0.1939
 5472UDC    C1160192  19.259  16.912   2.026 -0.1068  0.4028  0.2345
 5473UDC     C160193   2.743  10.276  13.133 -0.1442 -0.5479  0.6938
 5473UDC     C260194   2.811  10.188  13.020 -0.4559  0.1161  0.4329
 5473UDC     C360195   2.908  10.095  13.086  0.0211  0.6367 -0.3606
 5473UDC     C460196   2.952   9.979  12.992 -0.9791 -1.5938 -0.6856
 5473UDC     C560197   2.962  10.017  12.846 -0.5725 -0.9949  0.0893
 5473UDC     C660198   3.014   9.895  12.764  0.1657  0.9542  0.5602
 5473UDC     C760199   3.138   9.848  12.845 -0.2744 -0.3030  0.4794
 5473UDC     C860200   3.253   9.782  12.769  0.5499 -0.7310 -0.4234
 5473UDC     C960201   3.207   9.630  12.744 -0.0762 -0.7553 -0.3349
 5473UDC    C1060202   3.314   9.551  12.664  0.7587 -0.0617  0.0978
 5473UDC    C1160203   3.248   9.436  12.584  0.4522 -0.2784  0.4537
 5474UDC     C160204  13.906   9.124   2.841 -0.9176 -0.7402 -0.5467
 5474UDC     C260205  13.796   9.235   2.853 -0.9198  0.7837  0.0730
 5474UDC     C360206  13.659   9.161   2.830 -0.7538 -1.2768  0.3203
 5474UDC     C460207  13.543   9.245   2.890 -0.5292 -0.0512  0.9206
 5474UDC     C560208  13.454   9.171   2.990  0.1748 -0.5172  0.1331
 5474UDC     C660209  13.303   9.209   2.991 -0.4634  0.0817 -0.6127
 5474UDC     C760210  13.261   9.359   3.023  0.0121 -0.2054  1.3178
 5474UDC     C860211  13.117   9.395   2.988 -0.8586 -0.2663 -0.7173
 5474UDC     C960212  13.064   9.365   2.848  0.7740 -0.1225  0.0201
 5474UDC    C1060213  13.124   9.444   2.738  0.3802 -0.0621  0.3701
 5474UDC    C1160214  13.086   9.382   2.610  0.1799  0.8052  1.1836
 5475UDC     C160215   7.792  13.221   0.251  1.1263 -0.0636 -0.8376
 5475UDC     C260216   7.733  13.170   0.389  0.3155 -0.5147 -0.1633
 5475UDC     C360217   7.847  13.154   0.507  0.4985  0.6582 -0.2289
 5475UDC     C460218   7.997  13.185   0.482 -0.7427 -0.4055 -0.2531
 5475UDC     C560219   8.110  13.132   0.570  0.1937  1.6088 -0.4265
 5475UDC     C660220   8.253  13.122   0.506  0.5007  0.0558  0.3063
 5475UDC     C760221   8.346  13.176   0.614  0.0920  0.0926  0.3428
 5475UDC     C860222   8.350  13.320   0.681  0.1850  0.9398 -0.4681
 5475UDC     C960223   8.406  13.437   0.592 -0.7521 -1.6063  0.8949
 5475UDC    C1060224   8.451  13.558   0.676  0.4087 -0.1175  0.3485
 5475UDC    C1160225   8.341  13.659   0.718 -0.0788 -0.5840  0.4664
 5476UDC     C160226  15.723   4.199  13.807  0.7382 -0.3706  0.0358
 5476UDC     C260227  15.627   4.200  13.930  0.0934  0.3942 -0.5395
 5476UDC     C360228  15.636   4.084  14.032 -1.7168 -0.6604 -0.0104
 5476UDC     C460229  15.609   3.947  13.967 -0.2725  1.5472  0.2962
 5476UDC     C560230  15.663   3.839  14.066  0.6944 -0.3248  0.2440
 5476UDC     C660231  15.818   3.843  14.100 -0.5968 -0.0416  0.3745
 5476UDC     C760232  15.830   3.758  14.228 -0.2188  0.4028  0.0038
 5476UDC     C860233  15.972   3.729  14.276  0.0374 -0.6569 -0.4215
 5476UDC     C960234  16.056   3.858  14.301 -0.9759  0.1166  0.5072
 5476UDC    C1060235  16.209   3.845  14.277  0.3028  0.3333  1.0621
 5476UDC    C1160236  16.277   3.933  14.382 -0.3044 -0.9166 -0.1495
 5477UDC     C160237   8.189   2.339   0.361  0.8868 -0.7097 -0.3254
 5477UDC     C260238   8.141   2.282   0.491  0.6186  0.2964  0.4562
 5477UDC     C360239   8.167   2.361   0.615  0.2070 -0.5740 -0.3471
 5477UDC     C460240   8.308   2.399   0.600 -0.8197  0.6076  0.1614
 5477UDC     C560241   8.377   2.450   0.732  0.6912  0.4445  0.7180
 5477UDC     C660242   8.437   2.337   0.825 -0.0820 -0.8793 -1.5427
 5477UDC     C760243   8.522   2.402   0.937 -0.6478 -0.9883  0.3745
 5477UDC     C860244   8.536   2.294   1.050  0.1359 -0.1527 -0.0038
 5477UDC     C960245   8.654   2.309   1.150 -0.8145  1.1403  0.1112
 5477UDC    C1060246   8.643   2.224   1.279  0.7538 -0.2108 -0.3968
 5477UDC    C1160247   8.628   2.075   1.258 -0.2857 -0.6528  0.6391
 5478UDC     C160248  19.264   8.902  14.428 -0.1260 -0.5062 -1.2426
 5478UDC     C260249  19.253   9.037  14.505 -0.1051  0.3362  1.1402
 5478UDC     C360250  19.369   9.075  14.583 -0.5167  0.2040 -0.4642
 5478UDC     C460251  19.391   8.976  14.700 -0.0176 -0.6308 -1.3116
 5478UDC     C560252  19.528   9.007  14.768 -0.1458 -1.2533  0.0692
 5478UDC     C660253  19.542   8.953  14.906  0.0651 -0.9863 -0.2104
 5478UDC     C760254  19.642   9.048  14.979  0.5009 -0.9046 -0.0937
 5478UDC     C860255  19.634   9.040  15.138  0.8316  0.1943  0.2782
 5478UDC     C960256  19.758   9.083  15.224  0.7054 -0.5530  0.6657
 5478UDC    C1060257  19.812   9.225  15.174 -0.5769  1.1704  0.3142
 5478UDC    C1160258  19.934   9.278  15.255 -0.5004  1.4809 -0.1691
 5479UDC     C160259  14.320  16.575   1.392  0.5840 -0.3217  0.4209
 5479UDC     C260260  14.442  16.621   1.311 -0.3963 -0.8243 -0.3351
 5479UDC     C360261  14.531  16.731   1.359 -0.0945 -0.9032  0.4638
 5479UDC     C460262  14.659  16.678   1.427  0.2206 -0.0338 -0.1388
 5479UDC     C560263  14.722  16.795   1.509 -0.3717  0.2534 -0.9145
 5479UDC     C660264  14.811  16.877   1.414  0.7468  0.3863 -0.4031
 5479UDC     C760265  14.814  17.021   1.470  0.0650 -0.8409  0.2445
 5479UDC     C860266  14.886  17.029   1.604 -0.8037  0.0108 -1.0882
 5479UDC     C960267  15.027  16.975   1.598 -0.7590  0.0900 -0.2942
 5479UDC    C1060268  15.127  17.015   1.702 -0.0874 -0.3591  0.0083
 5479UDC    C1160269  15.217  16.905   1.763 -0.1855 -0.2039  1.1888
 5480UDC     C160270  12.129   1.926   0.793  0.1353  1.0528 -0.8974
 5480UDC     C260271  12.216   2.020   0.876  0.9092  0.3741 -0.2593
 5480UDC     C360272  12.184   2.174   0.853  0.3118 -0.7557 -0.8007
 5480UDC     C460273  12.219   2.272   0.970 -0.4835 -0.0221 -0.1874
 5480UDC     C560274  12.093   2.316   1.053  0.1737  1.1085  0.0066
 5480UDC     C660275  12.016   2.222   1.146  0.1423  0.0771  0.1835
 5480UDC     C760276  11.937   2.300   1.251  0.6009  0.7451  0.0097
 5480UDC     C860277  11.866   2.230   1.373 -0.7163 -0.5810 -0.4279
 5480UDC     C960278  11.807   2.089   1.370 -0.8408 -0.1899  1.1550
 5480UDC    C1060279  11.745   2.057   1.504  0.1387  0.2137 -0.1594
 5480UDC    C1160280  11.846   2.033   1.619  0.2243 -0.4966 -0.1454
 5481UDC     C160281   1.748  18.551   1.159  0.1037  0.2892  0.2810
 5481UDC     C260282   1.871  18.564   1.062  0.4007 -1.0344  1.2091
 5481UDC     C360283   1.842  18.583   0.911  0.4770 -0.1799  0.2160
 5481UDC     C460284   1.771  18.468   0.844  0.5516  0.5112 -0.1660
 5481UDC     C560285   1.703  18.504   0.709  0.5005  0.6240 -0.9143
 5481UDC     C660286   1.670  18.374   0.629 -0.5531  0.2357  0.2372
 5481UDC     C760287   1.784  18.270   0.640 -0.3751  0.3362 -0.1532
 5481UDC     C860288   1.747  18.144   0.556  0.8751  1.0468 -0.7727
 5481UDC     C960289   1.775  18.172   0.413 -1.0788  0.2602 -0.2156
 5481UDC    C1060290   1.919  18.235   0.390 -0.3007  1.1262  0.5019
 5481UDC    C1160291   1.933  18.293   0.253  0.3366 -0.0152  0.0085
 5482UDC     C160292  10.959   8.703   8.743  0.3093 -0.4625  0.1254
 5482UDC     C260293  11.001   8.782   8.621 -0.3183  0.0272  0.4431
 5482UDC     C360294  11.080   8.914   8.659  0.2096 -0.5112 -0.5199
 5482UDC     C460295  11.181   8.896   8.771 -0.0314 -0.1871  0.0373
 5482UDC     C560296  11.156   8.981   8.901 -0.4187  0.1138  0.3979
 5482UDC     C660297  11.270   8.972   9.005  0.6109  0.6269 -0.2908
 5482UDC     C760298  11.272   9.093   9.102 -0.2274 -0.4020  1.0853
 5482UDC     C860299  11.395   9.102   9.199 -0.2977 -0.0313  0.4422
 5482UDC     C960300  11.403   9.238   9.259 -0.0086 -1.3874 -1.0317
 5482UDC    C1060301  11.526   9.266   9.353 -0.4845  0.5172  0.8608
 5482UDC    C1160302  11.617   9.366   9.277 -0.5620 -0.6249 -0.6627
 5483UDC     C160303   6.601  16.156   2.328  0.4661  1.1796  0.0888
 5483UDC     C260304   6.623  16.005   2.295  0.7504  0.1880  0.2046
 5483UDC     C360305   6.624  15.984   2.143 -0.9554 -0.3736  0.6610
 5483UDC     C460306   6.646  15.835   2.095  0.3809 -0.6774  0.3871
 5483UDC     C560307   6.716  15.814   1.951  1.3332 -1.2547 -0.4865
 5483UDC     C660308   6.647  15.693   1.878 -0.2262 -0.8119  0.5286
 5483UDC     C760309   6.504  15.725   1.854  0.0203 -0.1006 -0.9420
 5483UDC     C860310   6.413  15.603   1.848  1.2023 -0.1481  0.2144
 5483UDC     C960311   6.307  15.643   1.746 -0.6697 -1.4274 -0.7619
 5483UDC    C1060312   6.192  15.561   1.688  0.1553 -0.3045 -0.5652
 5483UDC    C1160313   6.239  15.420   1.659 -0.4482 -0.5376 -0.5051
 5484UDC     C160314  12.416   0.816   0.491 -0.1810  1.0356  0.5586
 5484UDC     C260315  12.284   0.762   0.460 -0.5012  0.6567  0.2241
 5484UDC     C360316  12.184   0.797   0.568  1.4929  0.0044  0.9404
 5484UDC     C460317  12.188   0.943   0.593  1.3020  0.3867 -0.8152
 5484UDC     C560318  12.128   0.968   0.734  0.6451  0.7905 -0.9316
 5484UDC     C660319  11.981   0.923   0.744  0.3520  0.7245 -0.9053
 5484UDC     C760320  11.913   0.982   0.869  0.7130 -0.0732 -0.7346
 5484UDC     C860321  11.784   0.914   0.901  0.3562  0.4773  0.6832
 5484UDC     C960322  11.652   0.974   0.858  1.4650  0.3378  0.3961
 5484UDC    C1060323  11.519   0.931   0.925 -0.5326 -0.2505  0.6192
 5484UDC    C1160324  11.550   0.926   1.070  0.7114  0.5257 -0.3719
 5485UDC     C160325  14.286  18.167   7.680  0.0421 -0.6290 -0.6172
 5485UDC     C260326  14.384  18.154   7.569 -0.3277 -0.1809  0.4280
 5485UDC     C360327  14.341  18.235   7.454  1.1512  0.0197  0.2216
 5485UDC     C460328  14.399  18.182   7.322 -0.4420  0.5803  0.1926
 5485UDC     C560329  14.394  18.267   7.195 -0.3150  0.2143  0.2145
 5485UDC     C660330  14.425  18.212   7.054 -0.8220  0.3107 -0.2453
 5485UDC     C760331  14.300  18.148   6.993  0.3102  0.5426 -0.2471
 5485UDC     C860332  14.297  18.147   6.835 -0.2496 -0.4384  0.4035
 5485UDC     C960333  14.218  18.027   6.777 -0.2632 -0.0568 -0.6964
 5485UDC    C1060334  14.283  17.892   6.796 -0.2189 -0.4708  0.6239
 5485UDC    C1160335  14.307  17.805   6.676  0.8950  1.0392 -0.6167
 5486UDC     C160336  19.587  14.620  18.381 -0.2736  0.0122 -0.3479
 5486UDC     C260337  19.537  14.524  18.494 -1.1209  0.0501  0.0063
 5486UDC     C360338  19.396  14.562  18.543 -0.6507 -0.0804 -0.2193
 5486UDC     C460339  19.279  14.583  18.447  0.3738 -1.3676 -0.2610
 5486UDC     C560340  19.167  14.647  18.528  1.0302 -0.1081  0.3012
 5486UDC     C660341  19.027  14.648  18.469 -0.5018  0.4893  0.7386
 5486UDC     C760342  19.039  14.706  18.332  0.5906  0.4112  0.4704
 5486UDC     C860343  18.903  14.757  18.278 -0.0217 -0.2622 -1.1209
 5486UDC     C960344  18.922  14.835  18.145  0.6545 -0.3235  0.7590
 5486UDC    C1060345  18.796  14.869  18.065  0.3460  0.2653 -0.5229
 5486UDC    C1160346  18.810  14.935  17.930 -0.8848  0.1933  0.4393
 5487UDC     C160347  16.262  11.044   5.854  0.2538  0.1312  0.1992
 5487UDC     C260348  16.270  10.890   5.854 -0.2222  0.6241 -0.3666
 5487UDC     C360349  16.401  10.833   5.912  0.3364 -0.2352 -0.9553
 5487UDC     C460350  16.412  10.677   5.935 -0.1389  0.0674 -0.8527
 5487UDC     C560351  16.365  10.654   6.073  0.2169  0.1641  0.4187
 5487UDC     C660352  16.347  10.505   6.105  0.9611  0.8419  0.2216
 5487UDC     C760353  16.261  10.457   6.229 -0.4351  0.8638  0.3990
 5487UDC     C860354  16.223  10.305   6.248 -0.0497 -0.3411 -0.2189
 5487UDC     C960355  16.156  10.266   6.380  0.2657  1.1551 -0.8905
 5487UDC    C1060356  16.113  10.117   6.390 -0.0443 -0.5983 -0.1441
 5487UDC    C1160357  16.077  10.071   6.535 -0.7824 -1.2376  0.0019
 5488UDC     C160358   0.023  17.449  12.974  0.6522  0.7576 -0.4550
 5488UDC     C260359   0.039  17.516  12.845  0.5849 -0.5855 -0.0718
 5488UDC     C360360   0.184  17.517  12.793 -0.6203 -1.1060  0.9851
 5488UDC     C460361   0.191  17.533  12.640 -0.1663 -0.4352 -1.0791
 5488UDC     C560362   0.331  17.551  12.583 -0.7315 -0.6854 -0.2220
 5488UDC     C660363   0.346  17.623  12.458  0.5269 -0.5796 -0.6158
 5488UDC     C760364   0.481  17.599  12.383 -0.4071 -0.3007 -1.8347
 5488UDC     C860365   0.511  17.461  12.326  0.3894  0.8237 -0.7685
 5488UDC     C960366   0.663  17.451  12.309 -1.3031  1.1421 -1.4408
 5488UDC    C1060367   0.695  17.330  12.224 -0.0619 -0.1356  1.7555
 5488UDC    C1160368   0.837  17.274  12.235 -0.1111  1.0084 -1.3754
 5489UDC     C160369  18.504   7.154  16.702 -1.1849 -0.1346  0.5012
 5489UDC     C260370  18.635   7.139  16.621  0.0966 -0.2903 -0.6132
 5489UDC     C360371  18.714   7.274  16.616  0.2504  0.2652  0.1549
 5489UDC     C460372  18.797   7.313  16.494  0.2974  0.6058 -0.1839
 5489UDC     C560373  18.883   7.205  16.422 -0.0615 -0.2232  1.0593
 5489UDC     C660374  19.006   7.164  16.505  0.6224  0.1106 -0.6126
 5489UDC     C760375  19.125   7.118  16.427 -0.7069 -0.7145 -0.1223
 5489UDC     C860376  19.231   7.141  16.533  0.0159 -0.2263 -0.3032
 5489UDC     C960377  19.239   7.037  16.647 -0.4059 -0.4120  0.7567
 5489UDC    C1060378  19.338   7.086  16.750 -0.2743 -0.2351 -0.6899
 5489UDC    C1160379  19.383   6.983  16.851 -0.0068 -0.6392  0.1149
 5490UDC     C160380   4.450  14.990  19.419 -0.9381 -0.4159  0.4284
 5490UDC     C260381   4.420  14.942  19.563  0.4677  0.4954 -1.2607
 5490UDC     C360382   4.277  14.989  19.613 -1.2481 -0.4963 -0.0872
 5490UDC     C460383   4.266  14.968  19.768 -1.2469 -0.3008 -0.5395
 5490UDC     C560384   4.390  15.027  19.846 -0.0324  1.0052  0.3068
 5490UDC     C660385   4.375  15.028  19.999  1.2216 -0.2545 -0.3433
 5490UDC     C760386   4.303  15.162  20.042  0.9192  0.2604 -0.1663
 5490UDC     C860387   4.227  15.185  20.182 -0.8160  1.1905  0.1040
 5490UDC     C960388   4.133  15.302  20.179  1.8035 -0.2487  0.0277
 5490UDC    C1060389   4.143  15.388  20.306  0.7043  0.5368 -0.0137
 5490UDC    C1160390   4.294  15.396  20.333 -0.1714 -0.4754 -0.1440
 5491UDC     C160391  13.976   7.941   1.093 -0.5197  0.4559 -0.2020
 5491UDC     C260392  13.879   7.821   1.099 -0.1984 -0.9511 -0.5722
 5491UDC     C360393  13.929   7.709   1.195 -1.1993  0.0949 -1.1539
 5491UDC     C460394  13.866   7.576   1.147 -0.1650  0.2054 -1.2131
 5491UDC     C560395  13.716   7.560   1.193 -0.9082  0.6979 -1.5988
 5491UDC     C660396  13.716   7.544   1.350 -0.2897 -1.8090 -0.7667
 5491UDC     C760397  13.776   7.424   1.407  0.1977 -0.0879 -0.7126
 5491UDC     C860398  13.796   7.463   1.553 -1.0957  0.5332  0.1078
 5491UDC     C960399  13.862   7.360   1.656  1.7638  0.1365  0.2902
 5491UDC    C1060400  13.850   7.409   1.799 -0.3581  0.1865 -0.5704
 5491UDC    C1160401  13.973   7.485   1.839  0.4351  0.9493  1.0970
 5492UDC     C160402   7.204  13.651   5.685  0.6347 -0.3319  0.0129
 5492UDC     C260403   7.151  13.619   5.824  1.3441  1.0142 -0.0166
 5492UDC     C360404   7.075  13.489   5.839 -0.0549  0.4486  0.1122
 5492UDC     C460405   7.130  13.368   5.767 -0.2363 -0.8069 -0.5115
 5492UDC     C560406   7.040  13.247   5.769 -0.3462  0.3569 -1.2482
 5492UDC     C660407   7.087  13.126   5.682  0.1378 -0.2867  0.6210
 5492UDC     C760408   7.129  13.021   5.783  0.2353  1.0703 -0.5125
 5492UDC     C860409   6.998  12.959   5.847 -0.0026  1.0483 -0.0563
 5492UDC     C960410   6.904  12.905   5.735  0.4643 -0.8449  0.6932
 5492UDC    C1060411   6.773  12.846   5.784 -0.5032  0.1040  0.2192
 5492UDC    C1160412   6.788  12.709   5.858 -0.1708  0.4373  0.8726
 5493UDC     C160413   5.928  13.980   5.778  0.6020 -1.3820 -1.5124
 5493UDC     C260414   5.995  13.846   5.804  0.9620  0.3273 -0.3641
 5493UDC     C360415   6.094  13.851   5.923  0.7903  0.9580  0.0434
 5493UDC     C460416   6.224  13.920   5.875 -0.5728  0.0102  0.1896
 5493UDC     C560417   6.347  13.926   5.972  0.2767 -0.2217 -0.3834
 5493UDC     C660418   6.451  14.031   5.925 -0.8938 -0.5470 -0.2869
 5493UDC     C760419   6.391  14.175   5.933 -0.8257  0.7499  0.4208
 5493UDC     C860420   6.498  14.287   5.929 -0.8752  0.2301  0.4142
 5493UDC     C960421   6.426  14.424   5.913  0.0071  0.1241 -0.0454
 5493UDC    C1060422   6.370  14.428   5.770  0.3368  0.7306  0.6218
 5493UDC    C1160423   6.248  14.522   5.765  0.3092 -0.0674 -0.1884
 5494UDC     C160424  19.644  12.185   4.420 -1.0536  0.2714 -0.3444
 5494UDC     C260425  19.752  12.118   4.333 -0.0679 -0.5368  0.3309
 5494UDC     C360426  19.707  12.081   4.195 -0.6089  0.2395  0.5073
 5494UDC     C460427  19.576  11.999   4.181 -0.0950 -0.9605  0.0600
 5494UDC     C560428  19.577  11.920   4.048  0.5015  0.4085  0.2611
 5494UDC     C660429  19.469  11.809   4.091  0.5162  0.0005  0.0263
 5494UDC     C760430  19.390  11.770   3.963 -0.0002 -0.1010  0.0996
 5494UDC     C860431  19.247  11.710   3.997  0.5776  0.8907  1.2135
 5494UDC     C960432  19.231  11.588   3.898  0.3652 -0.1955  0.9841
 5494UDC    C1060433  19.208  11.631   3.747  0.5168 -1.1916  0.5311
 5494UDC    C1160434  19.068  11.685   3.728  0.7443  0.5110  0.8917
 5495UDC     C160435   8.608  17.169   1.775  1.1981  0.7930 -0.4159
 5495UDC     C260436   8.528  17.165   1.646  0.0026  0.5468 -0.0457
 5495UDC     C360437   8.582  17.054   1.552 -1.6519 -0.0520 -0.3576
 5495UDC     C460438   8.496  17.021   1.438  0.6402 -0.8781  0.0875
 5495UDC     C560439   8.509  17.128   1.323 -0.8904 -0.4147  1.2557
 5495UDC     C660440   8.436  17.085   1.191 -0.4626 -0.5529 -0.3536
 5495UDC     C760441   8.503  16.967   1.122 -0.3280 -0.6092  0.5089
 5495UDC     C860442   8.423  16.927   0.996 -0.3257  0.2171 -1.2000
 5495UDC     C960443   8.477  16.812   0.922 -0.4890  0.6990  0.3033
 5495UDC    C1060444   8.607  16.862   0.846  0.6656 -0.7755  0.6101
 5495UDC    C1160445   8.652  16.754   0.749  0.5732 -0.0870 -0.6484
 5496UDC     C160446  16.248   8.589   8.722 -0.3401 -0.2325 -0.0328
 5496UDC     C260447  16.360   8.588   8.829 -0.0969 -0.0128  0.1471
 5496UDC     C360448  16.342   8.488   8.942  0.5874  0.2712  0.5110
 5496UDC     C460449  16.224   8.497   9.038  0.9565 -0.9915  0.7152
 5496UDC     C560450  16.205   8.386   9.135 -0.0924 -0.6201  0.7150
 5496UDC     C660451  16.055   8.367   9.166 -0.6506  1.8017 -0.6229
 5496UDC     C760452  15.964   8.299   9.051  0.0473 -0.1085 -0.0366
 5496UDC     C860453  16.007   8.169   8.990  0.3386 -0.2289  0.0679
 5496UDC     C960454  16.073   8.074   9.086  0.1248 -0.1814 -0.1078
 5496UDC    C1060455  16.181   7.982   9.038 -0.2721 -0.8843 -0.5707
 5496UDC    C1160456  16.321   8.049   9.033 -0.1876 -0.7124 -0.5343
 5497UDC     C160457  19.980   1.319   9.441 -0.2185  0.0338  0.0781
 5497UDC     C260458  19.948   1.245   9.306 -0.4422 -1.6138  0.9582
 5497UDC     C360459  19.958   1.351   9.193  0.1491  0.4395 -0.1106
 5497UDC     C460460  19.937   1.293   9.055 -0.1138 -0.5579  0.2936
 5497UDC     C560461  19.890   1.420   8.975  0.9152  0.2942  0.5004
 5497UDC     C660462  19.981   1.546   8.991  0.3377  0.2270  0.3713
 5497UDC     C760463  19.899   1.672   9.004 -0.1614 -0.6563 -0.0941
 5497UDC     C860464  19.828   1.717   8.868 -0.6314  0.6210  0.2973
 5497UDC     C960465  19.733   1.832   8.868  0.4199 -0.2741  0.4501
 5497UDC    C1060466  19.599   1.770   8.882  0.2595  0.9115 -1.2791
 5497UDC    C1160467  19.584   1.636   8.954  0.4051  1.1143  0.3204
 5498UDC     C160468   6.040   6.922  14.910  0.9697 -0.1712 -0.7385
 5498UDC     C260469   5.975   7.043  14.846  0.8968  0.6888 -0.7092
 5498UDC     C360470   5.925   7.135  14.956 -0.5502 -0.6992 -0.7689
 5498UDC     C460471   6.040   7.207  15.033 -0.6484 -0.7947  0.2688
 5498UDC     C560472   6.099   7.324  14.942 -0.8166  0.7795  0.7583
 5498UDC     C660473   6.219   7.287  14.851 -0.2359 -0.0974  0.0380
 5498UDC     C760474   6.359   7.342  14.889 -0.2346  0.2457  0.6261
 5498UDC     C860475   6.463   7.251  14.810 -0.3708 -0.0958 -0.2317
 5498UDC     C960476   6.605   7.297  14.795 -0.8996 -0.2531 -1.0258
 5498UDC    C1060477   6.700   7.188  14.744 -0.2853  1.2583 -0.7360
 5498UDC    C1160478   6.682   7.161  14.593 -0.4458  0.0695 -0.7156
 5499UDC     C160479   7.236  17.752   7.264  0.8686  0.0810 -0.5779
 5499UDC     C260480   7.212  17.705   7.116  0.1071 -0.6672  0.0418
 5499UDC     C360481   7.354  17.732   7.043  0.4420  0.6607 -0.4281
 5499UDC     C460482   7.360  17.708   6.891 -0.0613  0.1510  0.6450
 5499UDC     C560483   7.332  17.834   6.798  0.5412  0.1778  0.1326
 5499UDC     C660484   7.444  17.937   6.792  0.5820 -0.1699  0.9884
 5499UDC     C760485   7.403  18.076   6.851  0.9709  0.9611 -0.1547
 5499UDC     C860486   7.516  18.143   6.927 -0.1624 -0.5795 -0.9465
 5499UDC     C960487   7.615  18.053   6.999 -0.0229 -0.1243 -0.6432
 5499UDC    C1060488   7.595  18.008   7.153  1.1725  0.4648 -0.0577
 5499UDC    C1160489   7.566  18.130   7.243 -0.0508  1.2200 -1.0186
 5500UDC     C160490  18.784   4.782   0.933 -0.2652 -0.9464  0.5587
 5500UDC     C260491  18.827   4.706   1.065  0.1431  0.9273  0.0411
 5500UDC     C360492  18.973   4.753   1.091  0.2553 -0.6913 -0.8000
 5500UDC     C460493  19.089   4.683   1.026  0.7665 -0.7569  0.3951
 5500UDC     C560494  19.220   4.743   1.078  0.2412  0.1503 -0.9888
 5500UDC     C660495  19.322   4.635   1.065  0.7754 -0.3082  0.5192
 5500UDC     C760496  19.283   4.522   1.167  1.1912 -0.7295 -0.1839
 5500UDC     C860497  19.319   4.549   1.318 -0.2540 -0.4236  0.2613
 5500UDC     C960498  19.300   4.410   1.396  0.0109  0.3797 -1.1966
 5500UDC    C1060499  19.159   4.351   1.396  0.4949 -0.1820 -0.8067
 5500UDC    C1160500  19.088   4.367   1.529 -1.0869 -0.3776  0.5427
 5501UDC     C160501   9.932  17.844  12.266 -0.1316  0.0010  0.0827
 5501UDC     C260502   9.786  17.781  12.272  1.3467 -1.1197 -0.3925
 5501UDC     C360503   9.780  17.692  12.396  0.1971  0.3520  0.5204
 5501UDC     C460504   9.754  17.766  12.529  0.0977  1.2893 -0.8581
 5501UDC     C560505   9.625  17.853  12.529 -0.5944  1.8265 -0.8443
 5501UDC     C660506   9.650  18.000  12.538  0.4506 -0.0521 -0.3507
 5501UDC     C760507   9.529  18.095  12.542  0.1548 -0.2525  0.8114
 5501UDC     C860508   9.444  18.097  12.667  0.3506 -0.0382  0.3640
 5501UDC     C960509   9.353  18.218  12.676  0.6864  0.3836  0.1569
 5501UDC    C1060510   9.393  18.364  12.663 -0.1575 -0.7218 -0.9691
 5501UDC    C1160511   9.285  18.461  12.625 -0.0473  1.1515 -0.9717
 5502UDC     C160512  19.637  13.485   0.775 -0.9520 -0.0114 -0.7545
 5502UDC     C260513  19.548  13.607   0.737 -0.4538  0.3404  0.7562
 5502UDC     C360514  19.400  13.594   0.778  0.5656 -0.0384  0.0940
 5502UDC     C460515  19.306  13.714   0.748 -0.7789 -0.4694  0.2743
 5502UDC     C560516  19.193  13.727   0.845 -0.0901  0.5441 -0.0183
 5502UDC     C660517  19.116  13.859   0.825 -1.1050 -0.3518  0.2708
 5502UDC     C760518  19.066  13.837   0.682 -0.2176 -0.6499 -0.1911
 5502UDC     C860519  18.948  13.931   0.645  0.0418  0.0748  0.2404
 5502UDC     C960520  18.805  13.891   0.688 -0.2910 -0.4032 -0.5510
 5502UDC    C1060521  18.712  13.979   0.603  0.1669  0.3624  0.3842
 5502UDC    C1160522  18.712  14.123   0.654  0.4160  0.3041  0.3972
 5503UDC     C160523  19.573   9.690  16.976 -0.8586 -0.2780  0.2658
 5503UDC     C260524  19.420   9.693  17.008 -0.2634  0.0750  1.0634
 5503UDC     C360525  19.341   9.570  16.953  0.3816  0.4707  0.3515
 5503UDC     C460526  19.340   9.581  16.795 -0.9321 -1.1341  0.4591
 5503UDC     C560527  19.246   9.477  16.748  0.2397 -1.4545 -0.7105
 5503UDC     C660528  19.287   9.350  16.822  0.4825  0.2917 -0.8329
 5503UDC     C760529  19.228   9.221  16.776 -0.1322  0.9658  0.0904
 5503UDC     C860530  19.086   9.206  16.849 -0.2995 -0.2545  0.3374
 5503UDC     C960531  19.028   9.068  16.820 -0.9486  0.4333  0.8871
 5503UDC    C1060532  19.073   9.003  16.691 -1.0859 -0.2724  0.7330
 5503UDC    C1160533  18.944   8.970  16.620 -0.1559 -0.3928  0.6210
 5504UDC     C160534   1.267  18.543  17.509  1.4547 -0.2163 -0.1323
 5504UDC     C260535   1.109  18.512  17.530  0.0994 -0.2833  0.3595
 5504UDC     C360536   1.029  18.613  17.449  1.2871 -0.9899 -0.9003
 5504UDC     C460537   0.883  18.613  17.499  0.1392  0.9691  0.7964
 5504UDC     C560538   0.887  18.621  17.651 -0.2335  0.5519 -0.1175
 5504UDC     C660539   0.789  18.718  17.714  0.9864 -0.3010  0.7284
 5504UDC     C760540   0.676  18.624  17.768  0.8584 -0.9961 -0.3008
 5504UDC     C860541   0.581  18.713  17.863  0.0053  0.1383 -0.7628
 5504UDC     C960542   0.624  18.720  18.013  1.6904  0.5362  0.0679
 5504UDC    C1060543   0.622  18.589  18.097  0.0471  0.0912 -0.3924
 5504UDC    C1160544   0.738  18.488  18.101  0.0056 -0.3656  0.0179
 5505UDC     C160545   8.238  12.335   0.747  0.7426 -0.0398  0.5583
 5505UDC     C260546   8.149  12.274   0.642 -0.7814 -0.8368 -0.0516
 5505UDC     C360547   8.017  12.215   0.702  0.6271 -0.7747  0.7504
 5505UDC     C460548   8.039  12.095   0.799 -0.6463 -0.0843  0.2213
 5505UDC     C560549   7.906  12.039   0.843 -1.0473 -0.4239 -0.4772
 5505UDC     C660550   7.907  11.939   0.963 -0.2486  0.0337 -0.8241
 5505UDC     C760551   7.782  11.854   0.972 -0.0466  0.9039  0.2744
 5505UDC     C860552   7.780  11.755   1.088  0.4230  0.6611  0.2765
 5505UDC     C960553   7.783  11.811   1.234 -0.3392  0.1146 -0.3301
 5505UDC    C1060554   7.847  11.706   1.330  0.4619  0.7684  0.1402
 5505UDC    C1160555   7.809  11.740   1.476  0.4105  0.4728 -0.3602
 5506UDC     C160556  19.798   7.436  16.709 -0.0320 -0.3918  0.0597
 5506UDC     C260557  19.921   7.469  16.799 -0.4708  0.3655  1.7482
 5506UDC     C360558  20.019   7.561  16.732  0.1895  1.0308  0.9155
 5506UDC     C460559  19.945   7.692  16.712 -0.1006 -0.2455  0.3479
 5506UDC     C560560  20.009   7.779  16.602  0.7275 -0.4944 -0.0140
 5506UDC     C660561  19.917   7.903  16.568 -0.7082  0.4493  0.5569
 5506UDC     C760562  19.808   7.845  16.476  0.6989  0.8950  0.0723
 5506UDC     C860563  19.849   7.734  16.379  0.4724 -0.6228 -0.4814
 5506UDC     C960564  19.740   7.697  16.273  0.4144  0.4253  0.4963
 5506UDC    C1060565  19.810   7.610  16.158  0.1583 -0.4495 -0.3563
 5506UDC    C1160566  19.758   7.567  16.022 -0.0833 -0.5932 -1.1590
 5507UDC     C160567   0.834   4.458  16.698  0.4463  0.0207 -0.7341
 5507UDC     C260568   0.717   4.437  16.794  0.1890 -0.4277  0.0453
 5507UDC     C360569   0.750   4.473  16.941  1.6154  0.6928 -0.4344
 5507UDC     C460570   0.612   4.473  17.025 -0.4304 -0.5962 -1.0962
 5507UDC     C560571   0.597   4.550  17.163 -0.5546  0.5093  0.1840
 5507UDC     C660572   0.665   4.470  17.276 -0.3958 -0.2986  1.1671
 5507UDC     C760573   0.712   4.566  17.386  0.2472 -0.7188 -0.4880
 5507UDC     C860574   0.825   4.659  17.334  0.4369  0.1597  0.1398
 5507UDC     C960575   0.959   4.579  17.313  0.4097 -0.2590  0.0126
 5507UDC    C1060576   1.075   4.661  17.244  0.8098 -1.0605 -0.4691
 5507UDC    C1160577   1.216   4.613  17.252 -0.8442  0.3728 -0.8760
 5508UDC     C160578  17.841   0.579   6.800  0.7256  0.1997  0.2664
 5508UDC     C260579  17.711   0.656   6.771  0.4579 -0.1063 -0.2549
 5508UDC     C360580  17.701   0.806   6.820 -0.5141 -0.2367  0.5433
 5508UDC     C460581  17.569   0.881   6.785 -0.9003  0.0314 -0.0043
 5508UDC     C560582  17.458   0.871   6.890 -0.1922 -0.3911 -0.5166
 5508UDC     C660583  17.512   0.863   7.032  0.7047 -0.6313 -0.6685
 5508UDC     C760584  17.406   0.900   7.138  1.4031 -0.6392 -1.2566
 5508UDC     C860585  17.268   0.822   7.135 -0.3499  1.2872 -0.9098
 5508UDC     C960586  17.284   0.666   7.143 -0.2605 -0.1429  0.6358
 5508UDC    C1060587  17.323   0.611   7.281 -0.6252  0.1346 -0.2126
 5508UDC    C1160588  17.200   0.554   7.347 -0.6378  0.0963 -0.1802
 5509UDC     C160589  19.531  18.939  19.724  0.0367  0.3307 -0.3591
 5509UDC     C260590  19.481  19.081  19.766  0.1004  0.3894 -0.2094
 5509UDC     C360591  19.367  19.126  19.664 -0.4005 -0.6377  0.1335
 5509UDC     C460592  19.360  19.278  19.653 -0.7663 -0.9565  0.0320
 5509UDC     C560593  19.267  19.330  19.540 -0.8326 -0.2931  0.3213
 5509UDC     C660594  19.114  19.294  19.568 -0.2037 -0.3658 -0.2297
 5509UDC     C760595  19.058  19.387  19.677 -0.3866 -0.4337 -0.0352
 5509UDC     C860596  19.111  19.532  19.682 -0.3049 -0.7855  0.3051
 5509UDC     C960597  19.017  19.612  19.772  0.0610 -0.1068 -0.2357
 5509UDC    C1060598  18.925  19.703  19.683  0.4811  1.3430 -0.1730
 5509UDC    C1160599  18.833  19.783  19.774  0.8235 -0.3306  0.3324
 5510UDC     C160600   5.013   6.286  14.532  1.3953 -0.2774 -0.1177
 5510UDC     C260601   5.157   6.307  14.590 -0.3672  0.6942  0.6969
 5510UDC     C360602   5.169   6.438  14.669 -0.0309  0.2909  0.1430
 5510UDC     C460603   5.312   6.457  14.716  1.2760  0.1705 -0.7947
 5510UDC     C560604   5.317   6.458  14.872  0.6638  0.1571  0.0426
 5510UDC     C660605   5.176   6.506  14.925  0.6697  0.0658 -0.6625
 5510UDC     C760606   5.150   6.485  15.078 -0.4517 -0.1022  0.3738
 5510UDC     C860607   5.019   6.421  15.109  0.1849  0.4880  0.1676
 5510UDC     C960608   5.016   6.393  15.259 -0.4743  0.2401 -0.0891
 5510UDC    C1060609   5.044   6.513  15.352  1.0436  0.1058  0.4013
 5510UDC    C1160610   5.034   6.465  15.494  0.8115 -0.5785 -0.2170
 5511UDC     C160611   2.371   2.757  10.198 -0.5112  0.4523 -0.3107
 5511UDC     C260612   2.269   2.641  10.232 -0.8179  0.5393  0.3345
 5511UDC     C360613   2.134   2.642  10.157  0.1559 -0.1595  0.1078
 5511UDC     C460614   2.034   2.550  10.227 -0.3316 -1.1345  0.1658
 5511UDC     C560615   1.893   2.572  10.165 -0.4752  0.3175  0.6183
 5511UDC     C660616   1.782   2.471  10.205  0.1626  0.6090  0.3524
 5511UDC     C760617   1.653   2.539  10.220 -0.1246 -0.0263 -0.1797
 5511UDC     C860618   1.589   2.571  10.079 -0.6647 -0.1882 -0.5181
 5511UDC     C960619   1.453   2.647  10.111 -1.3497 -0.4133  0.4891
 5511UDC    C1060620   1.335   2.555  10.119  0.4256 -0.3161 -0.4028
 5511UDC    C1160621   1.201   2.627  10.166  0.3577  0.3884 -0.5310
 5512UDC     C160622  13.297   4.054  16.877  0.0507 -0.5392  0.4343
 5512UDC     C260623  13.193   3.977  16.966 -0.1253  0.9049  0.7909
 5512UDC     C360624  13.190   3.830  16.909  0.8266 -0.4402  0.8173
 5512UDC     C460625  13.123   3.729  17.006  0.0632  1.0584 -0.3643
 5512UDC     C560626  13.115   3.576  16.963 -0.7494 -0.3325 -0.0208
 5512UDC     C660627  13.130   3.494  17.089 -0.3982  0.3127 -0.3238
 5512UDC     C760628  13.177   3.353  17.058 -0.6622 -0.3018  0.3485
 5512UDC     C860629  13.330   3.335  17.043  0.4721  0.8674  0.0467
 5512UDC     C960630  13.353   3.199  17.119  0.2761 -0.6844 -0.0832
 5512UDC    C1060631  13.489   3.155  17.156  0.1507  0.4486  0.1898
 5512UDC    C1160632  13.451   3.032  17.228 -1.0746 -0.4350  0.3781
 5513UDC     C160633  19.941   4.278  16.791 -1.6705 -0.4068 -0.8237
 5513UDC     C260634  19.836   4.208  16.709 -0.2610 -0.0700 -0.2271
 5513UDC     C360635  19.786   4.090  16.788  0.1155 -0.1488 -1.4916
 5513UDC     C460636  19.731   4.128  16.926  0.7056 -0.2796 -0.6108
 5513UDC     C560637  19.607   4.232  16.917  0.0487 -0.2435 -0.6594
 5513UDC     C660638  19.558   4.294  17.047 -1.4262  0.5817 -0.3662
 5513UDC     C760639  19.422   4.362  17.045 -0.5751 -0.6308 -1.5434
 5513UDC     C860640  19.304   4.264  17.051 -0.3148  0.0359  0.1456
 5513UDC     C960641  19.213   4.312  17.167 -0.9499 -0.3794 -0.6203
 5513UDC    C1060642  19.156   4.456  17.175  0.4137  0.6754 -0.4552
 5513UDC    C1160643  19.021   4.455  17.236 -0.0046 -0.3087 -1.1446
 5514UDC     C160644  16.847  12.514  11.235 -0.4390  0.8827 -0.6381
 5514UDC     C260645  17.003  12.501  11.271 -1.2082 -0.1527 -0.6393
 5514UDC     C360646  17.053  12.372  11.343  0.7193 -0.0711 -0.3698
 5514UDC     C460647  16.985  12.343  11.479 -0.7548 -0.8213  0.0229
 5514UDC     C560648  17.052  12.235  11.566 -0.5612 -0.6176  0.7681
 5514UDC     C660649  17.008  12.213  11.713 -1.0548  0.4099  0.6468
 5514UDC     C760650  17.039  12.344  11.787 -0.3297  0.4588  0.2137
 5514UDC     C860651  17.094  12.334  11.930 -1.1918 -0.0779 -0.4561
 5514UDC     C960652  16.998  12.276  12.038 -1.2670  0.2843 -0.0134
 5514UDC    C1060653  16.859  12.338  12.048 -0.3823 -0.9151 -0.2118
 5514UDC    C1160654  16.757  12.234  12.093  0.0166  0.0712 -0.1312
 5515UDC     C160655   8.842   4.695  19.256  0.2986  0.1098  1.3534
 5515UDC     C260656   8.903   4.602  19.145  0.2771 -0.2494 -0.0928
 5515UDC     C360657   9.039   4.547  19.185 -0.0498  0.0158  0.3524
 5515UDC     C460658   9.023   4.426  19.282 -0.1120  0.0468 -0.7074
 5515UDC     C560659   8.989   4.285  19.220 -0.9092 -0.2205 -0.0157
 5515UDC     C660660   8.966   4.180  19.322  0.8484 -0.0680 -0.1900
 5515UDC     C760661   8.977   4.040  19.265  0.3880 -0.2496  0.4262
 5515UDC     C860662   8.911   3.940  19.369 -1.1539  0.1007 -0.6433
 5515UDC     C960663   8.761   3.951  19.368  0.2441 -0.5160  0.2036
 5515UDC    C1060664   8.688   3.825  19.407 -0.3584 -0.3655  1.2837
 5515UDC    C1160665   8.712   3.724  19.291 -0.6339 -0.8786  1.0332
 5516UDC     C160666   1.834   6.607  11.676  0.7073  0.4126  0.0378
 5516UDC     C260667   1.761   6.686  11.566  0.1396  1.1767 -1.0058
 5516UDC     C360668   1.760   6.615  11.432  1.2094 -0.4080  0.2201
 5516UDC     C460669   1.896   6.560  11.401  0.3591  0.0784  0.8941
 5516UDC     C560670   1.908   6.444  11.296 -0.5669  0.7826  0.3432
 5516UDC     C660671   2.051   6.408  11.244  0.8645 -0.2888  0.2734
 5516UDC     C760672   2.112   6.272  11.234  0.9128 -0.7114  0.5868
 5516UDC     C860673   2.101   6.214  11.373 -0.0788 -0.8309  0.1573
 5516UDC     C960674   2.207   6.283  11.461  0.4084  0.0973  0.1180
 5516UDC    C1060675   2.291   6.195  11.560  0.4767 -0.4360  0.0127
 5516UDC    C1160676   2.390   6.264  11.657 -0.6768  0.5345  0.6331
 5517UDC     C160677   4.205  12.544   3.766 -0.5132 -0.4721  0.5888
 5517UDC     C260678   4.116  12.433   3.832 -0.6843 -0.5474 -0.4501
 5517UDC     C360679   4.109  12.280   3.797  0.3983  0.5646  0.6133
 5517UDC     C460680   4.085  12.231   3.653  0.3429  0.2455 -0.7941
 5517UDC     C560681   3.981  12.334   3.593 -0.8058  0.1772 -0.1071
 5517UDC     C660682   3.938  12.293   3.455  0.7481 -1.5240  1.3166
 5517UDC     C760683   3.860  12.415   3.416  0.1740  0.3513  0.2527
 5517UDC     C860684   3.835  12.429   3.266  1.1869  1.0343 -1.0939
 5517UDC     C960685   3.780  12.567   3.229 -0.7446  0.3251  0.4660
 5517UDC    C1060686   3.640  12.590   3.280  0.9127  0.6388 -0.6159
 5517UDC    C1160687   3.575  12.722   3.225 -1.0864  0.7687  0.8694
 5518UDC     C160688  19.832   4.442   8.745 -0.7558  0.3455 -0.0696
 5518UDC     C260689  19.702   4.472   8.807  0.5097 -0.3463 -0.1662
 5518UDC     C360690  19.579   4.407   8.735 -1.1485 -0.4973 -0.5000
 5518UDC     C460691  19.454   4.493   8.732  0.1791  0.2305 -0.4642
 5518UDC     C560692  19.342   4.410   8.668 -1.8796 -0.0653  0.2489
 5518UDC     C660693  19.229   4.491   8.613  0.4237 -0.3484 -0.1023
 5518UDC     C760694  19.086   4.425   8.638 -0.4835  0.2174  0.1333
 5518UDC     C860695  18.966   4.498   8.579  0.8203  1.6000 -0.3916
 5518UDC     C960696  18.997   4.514   8.433 -0.3985  0.9602 -0.3247
 5518UDC    C1060697  18.902   4.625   8.372 -0.1547  0.8548  0.1557
 5518UDC    C1160698  18.977   4.749   8.405  0.2485 -0.7658  0.2138
 5519UDC     C160699   8.056   7.179  16.056 -0.5427 -0.2363 -0.1722
 5519UDC     C260700   8.007   7.196  15.912  0.0612  0.5040 -0.4187
 5519UDC     C360701   8.077   7.107  15.808  0.0365  0.2139 -0.5794
 5519UDC     C460702   8.024   7.099  15.668  0.8587  0.1233  0.4092
 5519UDC     C560703   8.095   7.020  15.559 -0.7550  0.4257 -0.2725
 5519UDC     C660704   8.061   6.869  15.556  0.8463 -0.1591 -0.3276
 5519UDC     C760705   8.117   6.785  15.445  0.0946 -1.0701  1.0282
 5519UDC     C860706   8.181   6.646  15.495  1.0008 -1.1984  1.8378
 5519UDC     C960707   8.227   6.557  15.377 -0.0533  0.1393  0.0246
 5519UDC    C1060708   8.351   6.593  15.301 -0.8174 -0.8291 -0.9698
 5519UDC    C1160709   8.486   6.568  15.370  0.5755 -0.3666 -0.2984
 5520UDC     C160710  18.655   4.118  13.189  0.5535 -0.0176 -0.3190
 5520UDC     C260711  18.577   4.120  13.058  0.5085 -0.5940  1.0106
 5520UDC     C360712  18.426   4.099  13.054  0.1273 -1.4395 -1.0644
 5520UDC     C460713  18.366   4.196  13.155 -0.8900 -0.5887 -0.6433
 5520UDC     C560714  18.214   4.231  13.159  0.9097  1.2793  0.4758
 5520UDC     C660715  18.146   4.155  13.277 -0.0569  0.2734 -0.1684
 5520UDC     C760716  18.003   4.179  13.320  1.2707  0.9793 -0.3385
 5520UDC     C860717  17.978   4.318  13.381 -0.5615  0.2073  0.0984
 5520UDC     C960718  17.858   4.378  13.301  0.6452 -0.3595 -0.0966
 5520UDC    C1060719  17.738   4.287  13.269  0.4805 -0.3553 -0.2387
 5520UDC    C1160720  17.618   4.321  13.184  0.0082  0.6674 -0.2678
 5521UDC     C160721  11.343   0.727   5.000 -0.1467 -0.1515  0.1756
 5521UDC     C260722  11.201   0.781   4.967 -1.5441  0.2583  0.5690
 5521UDC     C360723  11.207   0.927   4.900  0.9278  0.0064  0.7108
 5521UDC     C460724  11.198   0.956   4.749 -1.4820  0.4842 -0.0862
 5521UDC     C560725  11.103   0.874   4.662  0.6210 -0.4643  0.0897
 5521UDC     C660726  11.104   0.922   4.511 -0.0425  0.5462  0.3749
 5521UDC     C760727  11.249   0.924   4.456  0.5566  0.5438 -0.5763
 5521UDC     C860728  11.308   0.786   4.418  0.0631  1.2070  0.0927
 5521UDC     C960729  11.459   0.777   4.419  0.2561  0.0317  0.5317
 5521UDC    C1060730  11.539   0.845   4.308 -0.7845 -0.5751  0.4386
 5521UDC    C1160731  11.677   0.786   4.330  1.0179  0.3148 -1.0359
 5522UDC     C160732   2.009  18.813  13.199 -0.2441 -0.0475  0.7274
 5522UDC     C260733   1.865  18.768  13.189  0.6702 -1.3812 -0.2448
 5522UDC     C360734   1.762  18.863  13.146  1.0511 -0.6315  0.6074
 5522UDC     C460735   1.621  18.795  13.141  0.6274 -0.1592  0.2818
 5522UDC     C560736   1.528  18.862  13.037  0.2761  0.1139 -0.5238
 5522UDC     C660737   1.381  18.881  13.083  0.1422  0.1545  0.1548
 5522UDC     C760738   1.323  18.757  13.159  0.3649 -1.2104 -0.4977
 5522UDC     C860739   1.191  18.779  13.226  0.6077  0.0612  0.4787
 5522UDC     C960740   1.180  18.897  13.320  0.8993 -0.3540  1.4204
 5522UDC    C1060741   1.046  18.954  13.364  0.2775 -0.1870 -1.1609
 5522UDC    C1160742   0.992  18.876  13.487  0.3546  1.5365 -0.2097
 5523UDC     C160743   4.907   8.208  12.330 -0.0431 -0.6919 -0.6527
 5523UDC     C260744   4.980   8.141  12.221 -0.6518 -0.3308 -0.3874
 5523UDC     C360745   5.106   8.077  12.281 -0.8767  0.2600 -0.9668
 5523UDC     C460746   5.191   8.034  12.162 -0.0650 -0.4413  0.3301
 5523UDC     C560747   5.304   7.933  12.182  0.2971  0.7085 -0.7001
 5523UDC     C660748   5.399   7.910  12.065 -0.0432 -0.4027  0.3246
 5523UDC     C760749   5.327   7.855  11.942  1.3630  0.3368  0.2774
 5523UDC     C860750   5.439   7.826  11.843 -0.3538 -0.1443 -0.4684
 5523UDC     C960751   5.490   7.677  11.855 -0.0125 -0.3476 -0.3488
 5523UDC    C1060752   5.622   7.650  11.780 -1.0196 -0.6161  0.5169
 5523UDC    C1160753   5.663   7.507  11.781 -1.0265 -0.9204 -0.6967
 5524UDC     C160754   9.737   7.554   5.960 -0.3924 -0.3553  0.2690
 5524UDC     C260755   9.738   7.614   6.103  0.4118  0.6886  0.5323
 5524UDC     C360756   9.652   7.744   6.124 -0.0078 -0.5407  0.4883
 5524UDC     C460757   9.690   7.797   6.265  0.3762 -0.3231 -0.0702
 5524UDC     C560758   9.699   7.950   6.282  0.1531 -0.2976  1.2501
 5524UDC     C660759   9.753   8.005   6.400 -0.7485 -0.1911 -0.0433
 5524UDC     C760760   9.882   7.942   6.456  0.7740  0.8287 -0.6976
 5524UDC     C860761  10.000   7.942   6.363  0.7994 -0.4385 -0.0215
 5524UDC     C960762  10.081   8.081   6.363 -0.7323 -0.0093 -0.5602
 5524UDC    C1060763  10.185   8.120   6.478 -0.2386  0.0056 -0.1932
 5524UDC    C1160764  10.215   8.266   6.481 -0.3449 -0.2351 -0.5634
 5525UDC     C160765  14.222   0.596  13.180  0.7842 -0.0847  0.2712
 5525UDC     C260766  14.236   0.515  13.313  0.9379  0.4475 -0.4648
 5525UDC     C360767  14.384   0.514  13.361  0.3696  0.0622 -1.0521
 5525UDC     C460768  14.390   0.442  13.505 -0.5678 -0.9280  0.6520
 5525UDC     C560769  14.359   0.528  13.624 -0.4189 -0.4055 -0.6168
 5525UDC     C660770  14.401   0.456  13.754 -0.6577  0.8852 -1.0829
 5525UDC     C760771  14.353   0.307  13.755 -0.8983 -0.3963 -0.9511
 5525UDC     C860772  14.331   0.257  13.904  0.1121 -0.5071  0.3196
 5525UDC     C960773  14.279   0.119  13.927  0.1372 -0.0413  0.4437
 5525UDC    C1060774  14.229   0.105  14.070 -0.3059 -0.2646 -0.8360
 5525UDC    C1160775  14.306   0.001  14.157 -0.3173  1.4402 -0.0392
 5526UDC     C160776  13.628  10.081   8.675  0.0959 -0.5225 -0.5877
 5526UDC     C260777  13.649  10.221   8.744 -0.8418 -0.2323  0.6714
 5526UDC     C360778  13.523  10.306   8.761  0.6455  0.0564 -0.0350
 5526UDC     C460779  13.444  10.245   8.875  0.2743 -1.6896  0.0903
 5526UDC     C560780  13.328  10.334   8.927  0.3518  0.4950 -0.4357
 5526UDC     C660781  13.369  10.373   9.069 -1.0849 -0.9351 -0.4390
 5526UDC     C760782  13.369  10.245   9.164 -0.0947 -0.4969  0.5320
 5526UDC     C860783  13.404  10.259   9.310  0.4911  0.6582  0.5315
 5526UDC     C960784  13.273  10.285   9.388  0.2373 -0.4834 -0.7432
 5526UDC    C1060785  13.305  10.350   9.523  0.5286  0.1497  0.5727
 5526UDC    C1160786  13.182  10.372   9.610  0.9682 -0.0275 -0.0760
 5527UDC     C160787   8.846  13.819   0.583 -0.3905  0.7187 -0.7948
 5527UDC     C260788   8.981  13.784   0.547 -0.9335  1.0293 -0.2630
 5527UDC     C360789   8.967  13.667   0.445 -0.2400 -0.7138 -1.0131
 5527UDC     C460790   9.093  13.640   0.353 -1.4442 -0.5631  0.9372
 5527UDC     C560791   9.087  13.517   0.269 -0.0951  0.2962 -0.8035
 5527UDC     C660792   9.135  13.389   0.350 -0.9195  0.0097  0.1750
 5527UDC     C760793   9.103  13.250   0.292  0.1639 -2.0835  0.0751
 5527UDC     C860794   8.978  13.196   0.360 -0.3483  0.3965  0.0814
 5527UDC     C960795   8.976  13.042   0.365 -0.3317 -0.2424 -0.3167
 5527UDC    C1060796   8.855  12.990   0.282  0.4631 -0.9419  0.3138
 5527UDC    C1160797   8.769  12.902   0.373  0.6970  0.0227  0.6339
 5528UDC     C160798  18.465   0.347   9.708 -0.4783  0.8113  0.0848
 5528UDC     C260799  18.394   0.338   9.848  0.0387 -0.2096 -0.1724
 5528UDC     C360800  18.400   0.193   9.898  0.1804 -0.4298  0.6367
 5528UDC     C460801  18.378   0.166  10.046 -0.1975  0.2170  0.1150
 5528UDC     C560802  18.453   0.044  10.092 -0.0272  0.4320 -0.6878
 5528UDC     C660803  18.376  -0.039  10.200  0.1371  0.1082  0.1032
 5528UDC     C760804  18.385  -0.190  10.195 -0.3167  0.4023 -0.0505
 5528UDC     C860805  18.325  -0.272  10.310  1.0591  0.4411 -0.1403
 5528UDC     C960806  18.371  -0.267  10.456 -0.6369  0.1898 -0.3546
 5528UDC    C1060807  18.519  -0.314  10.474 -0.2773  0.9990 -0.3113
 5528UDC    C1160808  18.587  -0.273  10.608 -0.5030 -0.0688  1.1804
 5529UDC     C160809   9.921   9.744   1.707  0.6550 -0.4399 -0.7104
 5529UDC     C260810  10.077   9.762   1.725 -0.2825 -0.5143  0.7867
 5529UDC     C360811  10.112   9.895   1.647 -0.5484  0.6654  0.0108
 5529UDC     C460812  10.260   9.940   1.649 -0.3409 -0.5852  0.6760
 5529UDC     C560813  10.351   9.840   1.590  0.1387 -0.3448 -0.5905
 5529UDC     C660814  10.502   9.868   1.598 -0.2478  0.6097  0.0520
 5529UDC     C760815  10.606   9.768   1.541  1.1446  0.7218 -1.2440
 5529UDC     C860816  10.749   9.819   1.525  0.6760  0.1589  0.4561
 5529UDC     C960817  10.837   9.701   1.482 -1.1244 -0.0337 -0.6813
 5529UDC    C1060818  10.975   9.720   1.431  1.4955  0.1185 -0.3242
 5529UDC    C1160819  10.995   9.815   1.311 -0.7453  0.4294 -0.1427
 5530UDC     C160820  12.153  12.812   1.252  0.1127  0.3351 -0.8255
 5530UDC     C260821  12.105  12.703   1.352  0.0748 -0.8085 -1.5357
 5530UDC     C360822  12.076  12.556   1.313 -0.6354 -0.0796 -0.4761
 5530UDC     C460823  12.197  12.483   1.245 -0.4673  0.1103 -0.1096
 5530UDC     C560824  12.305  12.448   1.353  0.0644  0.2922 -0.4187
 5530UDC     C660825  12.306  12.315   1.433 -0.7380 -0.6889 -0.1424
 5530UDC     C760826  12.315  12.183   1.355 -0.1830  0.1995 -0.7516
 5530UDC     C860827  12.274  12.066   1.449  0.5512 -0.1658  0.1235
 5530UDC     C960828  12.308  11.946   1.363  0.8863  0.2600  0.5488
 5530UDC    C1060829  12.261  11.927   1.219 -0.2766 -0.0715  0.7448
 5530UDC    C1160830  12.341  11.814   1.155  0.9589  0.2188 -0.2150
 5531UDC     C160831  12.834   2.738   4.510 -0.0937 -0.0336 -0.1137
 5531UDC     C260832  12.949   2.722   4.621 -0.8456  0.0839 -0.3320
 5531UDC     C360833  12.947   2.827   4.730 -0.4880  0.2873 -0.1087
 5531UDC     C460834  12.813   2.857   4.798 -0.1152  0.2177  0.0806
 5531UDC     C560835  12.750   2.750   4.882 -0.6068  0.6895  0.3468
 5531UDC     C660836  12.596   2.743   4.874  0.3616 -0.5012  0.6456
 5531UDC     C760837  12.517   2.665   4.974  0.9646  0.7337 -0.4946
 5531UDC     C860838  12.364   2.698   4.968 -0.5451 -0.6458 -0.8851
 5531UDC     C960839  12.315   2.665   4.825 -0.6553 -1.5993 -0.0679
 5531UDC    C1060840  12.171   2.716   4.792 -0.0144 -0.0335  0.5917
 5531UDC    C1160841  12.086   2.621   4.702  0.6483 -0.4749  1.4485
 5532UDC     C160842  11.989  13.256  10.002 -0.2826  0.8841  1.3367
 5532UDC     C260843  12.118  13.311  10.061 -0.1424 -0.1166 -0.1935
 5532UDC     C360844  12.111  13.290  10.216  0.7714 -0.2315 -0.2648
 5532UDC     C460845  12.227  13.333  10.309 -0.4655  0.2755 -0.4582
 5532UDC     C560846  12.272  13.245  10.426 -0.9032 -0.4239 -0.3559
 5532UDC     C660847  12.169  13.169  10.505 -0.4400 -0.1924  0.0613
 5532UDC     C760848  12.238  13.094  10.621  0.4282  0.1762  1.0201
 5532UDC     C860849  12.136  12.980  10.667 -1.0305  0.1066  0.2069
 5532UDC     C960850  12.156  12.916  10.802 -0.3339 -0.5396 -0.3068
 5532UDC    C1060851  12.037  12.887  10.890  0.9639 -0.0720 -1.2324
 5532UDC    C1160852  11.947  12.772  10.840 -0.5715 -0.8265 -0.2581
 5533UDC     C160853  18.693  18.108  14.409 -0.2522 -0.8439 -0.7045
 5533UDC     C260854  18.785  18.228  14.383 -0.0249  0.6734 -0.4391
 5533UDC     C360855  18.861  18.232  14.241  0.3717 -1.2896 -1.1911
 5533UDC     C460856  18.933  18.364  14.215 -1.7139  0.8911 -0.2579
 5533UDC     C560857  19.006  18.349  14.079  0.5131  0.0954  0.6204
 5533UDC     C660858  19.082  18.473  14.036  0.6208  0.1707  0.1491
 5533UDC     C760859  19.037  18.561  13.912 -0.4084  0.9845  0.1185
 5533UDC     C860860  19.121  18.690  13.915  0.5750  0.0172 -0.1023
 5533UDC     C960861  19.037  18.813  13.957  1.4850  0.5727 -0.0786
 5533UDC    C1060862  18.972  18.899  13.850  0.3513 -0.7684 -0.7094
 5533UDC    C1160863  18.875  19.020  13.908 -0.7634 -0.8461 -0.0559
 5534UDC     C160864  19.986  10.147  14.024 -0.9553 -0.7186  0.2767
 5534UDC     C260865  20.049  10.260  13.945 -0.8396 -0.0349 -0.4497
 5534UDC     C360866  19.955  10.375  13.904  0.2844 -0.2186  0.2533
 5534UDC     C460867  19.987  10.498  13.999 -0.2131 -0.1283 -0.0729
 5534UDC     C560868  19.948  10.631  13.924 -0.2385  1.7570 -0.2626
 5534UDC     C660869  20.029  10.615  13.790 -0.5937  0.4673  0.8223
 5534UDC     C760870  20.060  10.736  13.695  1.4070 -0.7176 -0.1419
 5534UDC     C860871  20.119  10.695  13.563  0.0150 -0.4647  0.1231
 5534UDC     C960872  20.073  10.793  13.449 -0.0621 -0.2092 -0.0620
 5534UDC    C1060873  20.079  10.943  13.501  0.3300 -0.1094  0.3052
 5534UDC    C1160874  20.059  11.071  13.413 -0.1149 -0.4269 -0.1234
 5535UDC     C160875   9.434  12.429  16.065 -0.4362 -0.6826 -0.0518
 5535UDC     C260876   9.545  12.514  16.011  1.4576 -0.1297 -0.0090
 5535UDC     C360877   9.667  12.433  15.944  0.9494 -0.6007  0.0960
 5535UDC     C460878   9.783  12.532  15.905  0.2323 -0.9235 -0.3421
 5535UDC     C560879   9.887  12.442  15.831 -0.5284  0.4764  0.0865
 5535UDC     C660880   9.823  12.387  15.707  1.4037 -0.0671  0.0357
 5535UDC     C760881   9.891  12.287  15.606  0.0659  0.3004 -0.1084
 5535UDC     C860882  10.004  12.344  15.516  0.4163 -0.0872  0.4242
 5535UDC     C960883   9.986  12.490  15.462 -0.9971  0.4851 -1.2135
 5535UDC    C1060884  10.109  12.566  15.396  0.4185  0.6652 -1.7069
 5535UDC    C1160885  10.084  12.692  15.311 -1.0413  0.3762  0.4386
 5536UDC     C160886   0.414   2.017  19.392 -0.6789  1.2128  0.4261
 5536UDC     C260887   0.276   2.013  19.331  0.7380  0.1416  1.2045
 5536UDC     C360888   0.176   2.120  19.406 -0.3957  0.1168 -0.0360
 5536UDC     C460889   0.069   2.156  19.312  0.4113  0.6534 -0.6639
 5536UDC     C560890   0.130   2.173  19.172 -0.5723 -0.1199  0.0124
 5536UDC     C660891   0.037   2.227  19.062  0.3166  0.1130 -0.9746
 5536UDC     C760892   0.091   2.212  18.922 -0.1593 -0.4267  1.4333
 5536UDC     C860893   0.184   2.330  18.898 -0.4866  0.4268  0.6707
 5536UDC     C960894   0.184   2.395  18.757 -0.6032 -0.2936  0.1325
 5536UDC    C1060895   0.104   2.528  18.759 -0.1955  0.1199 -0.4409
 5536UDC    C1160896  -0.036   2.499  18.700  0.7735 -0.0463  0.2685
 5537UDC     C160897   0.127   3.501   4.998  0.3029 -0.7003  0.0929
 5537UDC     C260898   0.221   3.464   4.882 -0.6449 -0.8664 -0.5048
 5537UDC     C360899   0.236   3.313   4.879  0.0572 -1.1332  0.0856
 5537UDC     C460900   0.305   3.254   4.995  0.0734  0.6109  0.2337
 5537UDC     C560901   0.237   3.138   5.071 -0.0971  0.2224  0.3688
 5537UDC     C660902   0.316   3.087   5.190 -0.0903 -0.1923  0.2861
 5537UDC     C760903   0.405   2.967   5.162 -0.5628 -1.0543  1.0356
 5537UDC     C860904   0.454   2.892   5.287  0.4650  0.5398  0.3080
 5537UDC     C960905   0.415   2.741   5.269  0.1494  0.0131 -0.2546
 5537UDC    C1060906   0.262   2.705   5.299  0.0748  0.0332 -0.7042
 5537UDC    C1160907   0.269   2.557   5.347  0.7732 -0.1909  0.5897
 5538UDC     C160908   2.418   6.916   5.984 -0.2337  0.8936 -0.5380
 5538UDC     C260909   2.278   6.885   6.033 -0.0592 -0.5397 -0.7981
 5538UDC     C360910   2.187   6.858   5.916 -0.9906  0.3778  0.2594
 5538UDC     C460911   2.258   6.750   5.836 -1.0466  1.2586 -0.6448
 5538UDC     C560912   2.176   6.683   5.725  0.3367 -0.1565  0.2067
 5538UDC     C660913   2.226   6.570   5.640 -0.1054 -0.7048  1.3879
 5538UDC     C760914   2.134   6.518   5.520  0.1792 -0.5782  0.3108
 5538UDC     C860915   2.024   6.455   5.603  0.4562 -0.4236  1.0751
 5538UDC     C960916   1.918   6.414   5.505 -1.0496  0.2570  0.6863
 5538UDC    C1060917   1.769   6.449   5.530  0.8607 -0.5809 -0.0949
 5538UDC    C1160918   1.671   6.489   5.413  0.6504  0.0667 -0.6970
 5539UDC     C160919   5.380  14.794  15.232  0.3517  0.1049 -0.3334
 5539UDC     C260920   5.423  14.702  15.119  0.1048  0.0892  0.7539
 5539UDC     C360921   5.502  14.582  15.165 -1.0128 -0.0541 -0.0802
 5539UDC     C460922   5.429  14.492  15.265  0.7796 -0.1409  0.5140
 5539UDC     C560923   5.329  14.402  15.184 -1.2375  0.1203  0.2465
 5539UDC     C660924   5.263  14.300  15.272  0.6903  0.1295 -0.6310
 5539UDC     C760925   5.316  14.159  15.323  0.4895 -1.0263 -0.2394
 5539UDC     C860926   5.445  14.157  15.411  0.3810 -1.7591 -0.3026
 5539UDC     C960927   5.539  14.045  15.445  0.2542 -0.5761  0.5020
 5539UDC    C1060928   5.469  13.962  15.553  0.8708  0.2250  0.1057
 5539UDC    C1160929   5.452  14.029  15.683  0.3746 -0.4970 -0.2419
 5540UDC     C160930   0.202  14.628  11.182  1.1425  0.2480 -1.1256
 5540UDC     C260931   0.116  14.582  11.066  0.0474  0.0265  1.0905
 5540UDC     C360932  -0.037  14.612  11.096  0.0038 -0.1085 -0.3097
 5540UDC     C460933  -0.094  14.543  11.224 -0.2914  0.0632  0.8422
 5540UDC     C560934  -0.245  14.539  11.244 -0.5841 -0.0632  0.1328
 5540UDC     C660935  -0.283  14.484  11.380 -0.5674  1.5355 -0.3196
 5540UDC     C760936  -0.416  14.406  11.367  0.1648  0.4260 -0.1198
 5540UDC     C860937  -0.424  14.308  11.476 -0.2062  0.9042  0.7242
 5540UDC     C960938  -0.402  14.369  11.618 -0.3483 -0.8795 -0.2991
 5540UDC    C1060939  -0.363  14.262  11.725  1.4230  0.5509 -0.0797
 5540UDC    C1160940  -0.460  14.161  11.799  0.5015 -0.4204  1.7131
 5541UDC     C160941  10.323   4.599  17.880 -0.1824 -0.6802  0.6424
 5541UDC     C260942  10.174   4.598  17.915 -1.2568 -0.6846  0.3209
 5541UDC     C360943  10.102   4.455  17.922  0.1054  1.2976 -0.3545
 5541UDC     C460944   9.953   4.447  17.959 -0.3521 -0.3366  0.3661
 5541UDC     C560945   9.889   4.307  17.965  0.5930  0.5345  0.7196
 5541UDC     C660946   9.811   4.238  17.848  0.3829  0.4851  0.3110
 5541UDC     C760947   9.750   4.110  17.902 -0.3256  0.2518 -1.1471
 5541UDC     C860948   9.825   4.058  18.026 -1.6015  0.3405 -0.4373
 5541UDC     C960949   9.770   3.921  18.067 -0.0260 -1.0024  0.3274
 5541UDC    C1060950   9.800   3.906  18.211  0.6455 -0.7701 -0.0504
 5541UDC    C1160951   9.887   3.781  18.253  0.1035  1.4080  0.2748
 5542UDC     C160952  13.045  12.893  19.230 -0.4358 -0.3057  0.2663
 5542UDC     C260953  13.066  12.802  19.117  0.1309  1.2970 -0.4312
 5542UDC     C360954  12.978  12.676  19.118  0.5884 -0.3254 -0.5442
 5542UDC     C460955  12.837  12.711  19.061  0.8924  0.2052  0.4673
 5542UDC     C560956  12.749  12.750  19.176  0.0854 -0.4224  0.9924
 5542UDC     C660957  12.603  12.707  19.179  0.1158 -0.2270  0.5298
 5542UDC     C760958  12.550  12.560  19.178  0.8417 -0.7327  0.3328
 5542UDC     C860959  12.398  12.585  19.172 -0.1981 -0.4310 -0.7042
 5542UDC     C960960  12.303  12.466  19.191  0.4905  0.4146  0.0188
 5542UDC    C1060961  12.233  12.458  19.324 -0.3413  0.9593 -0.0049
 5542UDC    C1160962  12.302  12.523  19.439 -0.3599  0.1567 -0.0262
 5543UDC     C160963  12.155  17.421   5.467  0.4263 -0.7130  0.9747
 5543UDC     C260964  12.117  17.293   5.553 -0.3106  0.9124  0.1298
 5543UDC     C360965  12.225  17.203   5.616 -0.3127  0.1089  0.4608
 5543UDC     C460966  12.186  17.168   5.760 -1.1532 -0.1865  0.6181
 5543UDC     C560967  12.307  17.172   5.859 -0.3501  0.4418  0.2083
 5543UDC     C660968  12.427  17.070   5.847  1.4360 -1.6073 -0.1916
 5543UDC     C760969  12.530  17.102   5.955 -0.2059  0.5296 -0.4270
 5543UDC     C860970  12.628  16.993   5.924  0.7244  1.0959 -0.7388
 5543UDC     C960971  12.749  16.986   6.009  0.1055  1.2650  0.1998
 5543UDC    C1060972  12.818  16.853   6.001 -0.5478 -0.3203  0.0370
 5543UDC    C1160973  12.931  16.851   6.110 -0.1613  0.4414 -0.2599
 5544UDC     C160974   6.945  14.863  14.858  1.1547 -0.7324 -1.3238
 5544UDC     C260975   6.904  14.750  14.763 -0.0673  0.7274  0.1081
 5544UDC     C360976   6.953  14.609  14.813  0.1638  0.3292  0.8327
 5544UDC     C460977   7.090  14.630  14.883  0.1445  0.1491  1.1845
 5544UDC     C560978   7.217  14.631  14.794  1.2040 -0.3199  0.2468
 5544UDC     C660979   7.347  14.624  14.875  0.3318 -0.3208 -0.0053
 5544UDC     C760980   7.447  14.562  14.782 -0.4955  0.2890  1.1406
 5544UDC     C860981   7.587  14.615  14.806  1.3623 -0.0797 -0.2929
 5544UDC     C960982   7.674  14.578  14.683  0.5741  0.2171 -0.0316
 5544UDC    C1060983   7.753  14.691  14.626 -0.5229  0.6384 -0.7069
 5544UDC    C1160984   7.843  14.746  14.743  0.0594 -0.4109 -0.0558
 5545UDC     C160985  14.570   7.981   9.282  1.1145  0.7059 -1.2412
 5545UDC     C260986  14.446   7.901   9.320 -0.3138 -0.9229  0.8422
 5545UDC     C360987  14.446   7.756   9.276  0.0508 -0.3192  0.3797
 5545UDC     C460988  14.529   7.722   9.150  0.4549 -0.8428 -0.5823
 5545UDC     C560989  14.450   7.742   9.024  0.3652  0.6057  0.3265
 5545UDC     C660990  14.543   7.787   8.907 -0.4458 -0.2061 -0.6747
 5545UDC     C760991  14.471   7.862   8.785 -1.1222  0.5949 -0.1787
 5545UDC     C860992  14.568   7.965   8.717  0.0484 -0.6831 -0.0431
 5545UDC     C960993  14.517   8.046   8.594  0.4524 -0.0426  1.6093
 5545UDC    C1060994  14.628   8.131   8.528 -0.7139 -0.7921 -0.3581
 5545UDC    C1160995  14.592   8.213   8.407 -0.2191 -0.8788  0.0330
 5546UDC     C160996  13.275  10.324   6.205  0.1593 -0.3101 -0.3159
 5546UDC     C260997  13.269  10.258   6.070  0.3294  0.0568  0.7171
 5546UDC     C360998  13.392  10.164   6.048  0.4899  0.8105  0.2116
 5546UDC     C460999  13.372  10.060   5.931 -0.3370 -1.0591  0.1147
 5546UDC     C561000  13.315   9.925   5.977 -0.7068 -1.4607 -0.4495
 5546UDC     C661001  13.324   9.805   5.878 -1.2056 -1.7159  0.4563
 5546UDC     C761002  13.464   9.737   5.852 -0.3909  0.5200  0.2463
 5546UDC     C861003  13.534   9.677   5.975 -0.9928  0.4574 -0.2642
 5546UDC     C961004  13.688   9.688   5.975  0.4388 -0.6650  0.3266
 5546UDC    C1061005  13.765   9.638   6.097  0.0856  0.8854  0.6745
 5546UDC    C1161006  13.759   9.486   6.126  0.3771 -0.2441  0.8948
 5547UDC     C161007  16.843  10.522   5.289 -0.4479  0.4246 -0.5271
 5547UDC     C261008  16.897  10.417   5.397  0.1062 -0.0850 -0.0498
 5547UDC     C361009  16.839  10.458   5.532 -0.2477 -0.5022  0.5690
 5547UDC     C461010  16.919  10.445   5.660  0.5220 -1.0474  0.1027
 5547UDC     C561011  16.976  10.587   5.687  0.8659  0.3618  0.0791
 5547UDC     C661012  17.080  10.597   5.793  0.2702  0.1241  0.8767
 5547UDC     C761013  17.211  10.527   5.755  0.4711 -0.2464 -0.0986
 5547UDC     C861014  17.292  10.621   5.664  0.0516  0.3810 -0.0860
 5547UDC     C961015  17.442  10.587   5.655 -0.3457  0.3049 -0.1070
 5547UDC    C1061016  17.517  10.572   5.789 -1.1459 -1.1444 -0.7328
 5547UDC    C1161017  17.658  10.508   5.777  0.5187 -0.1890  0.6922
 5548UDC     C161018   3.135   5.665   7.171 -0.7829 -0.6404  0.9219
 5548UDC     C261019   3.248   5.775   7.189 -0.0016  0.3875  0.5745
 5548UDC     C361020   3.291   5.840   7.321 -0.2914  0.6754  1.0202
 5548UDC     C461021   3.357   5.981   7.297  1.6349  0.2787 -0.2715
 5548UDC     C561022   3.336   6.051   7.426  0.2506  0.3172 -0.3642
 5548UDC     C661023   3.189   6.097   7.448  0.2057  0.6397 -1.1579
 5548UDC     C761024   3.164   6.186   7.573  0.5568  1.0268 -0.0925
 5548UDC     C861025   3.218   6.123   7.705  1.3094  0.0614  1.1251
 5548UDC     C961026   3.144   5.989   7.740  0.2929 -0.0961 -0.4545
 5548UDC    C1061027   3.157   5.936   7.888 -0.5360  0.4096  0.6006
 5548UDC    C1161028   3.107   5.795   7.913  0.4475 -0.6111  0.2830
 5549UDC     C161029  16.600   5.826   2.383  0.6035 -0.3387 -0.1378
 5549UDC     C261030  16.726   5.777   2.320 -0.3798 -0.2761  0.6305
 5549UDC     C361031  16.794   5.870   2.222 -1.2293 -1.1401 -0.9629
 5549UDC     C461032  16.854   5.992   2.300 -0.7810  0.5213 -0.0164
 5549UDC     C561033  16.858   6.106   2.199  0.4513  0.7511 -0.4985
 5549UDC     C661034  16.906   6.236   2.272  0.7124  0.4403  0.4314
 5549UDC     C761035  16.853   6.373   2.233 -0.0148  0.1586  0.4307
 5549UDC     C861036  16.701   6.390   2.191  0.6049  0.2497 -0.2551
 5549UDC     C961037  16.647   6.518   2.128  0.9259  0.0241 -0.9909
 5549UDC    C1061038  16.494   6.524   2.100  0.0231 -0.3432  0.3195
 5549UDC    C1161039  16.432   6.432   1.991 -0.0609  0.5256  0.7131
 5550UDC     C161040  15.996   0.469   2.539 -0.5776 -0.5689 -0.6067
 5550UDC     C261041  16.134   0.461   2.594 -1.1618  0.5652  0.4597
 5550UDC     C361042  16.200   0.324   2.565 -0.2791  0.4908  0.2607
 5550UDC     C461043  16.235   0.287   2.422  0.4267  0.3232  0.0989
 5550UDC     C561044  16.287   0.142   2.415  0.4271  0.4215 -0.0429
 5550UDC     C661045  16.435   0.141   2.448  0.2266 -0.0408 -0.4719
 5550UDC     C761046  16.487   0.008   2.510 -0.1679 -0.8727  1.8810
 5550UDC     C861047  16.501  -0.102   2.403 -0.1007 -0.0226 -0.1369
 5550UDC     C961048  16.561  -0.236   2.446  0.5540  0.3077 -0.9476
 5550UDC    C1061049  16.459  -0.346   2.421  1.3082 -0.3701  0.3003
 5550UDC    C1161050  16.432  -0.399   2.275 -0.2625  0.1095 -0.0498
 5551UDC     C161051  14.562  11.199  11.773  0.2722 -0.2020 -0.1161
 5551UDC     C261052  14.502  11.281  11.655  0.0247 -0.6080 -0.0175
 5551UDC     C361053  14.543  11.424  11.652 -0.5777 -1.2821 -0.7561
 5551UDC     C461054  14.438  11.528  11.624  0.2114 -0.4621 -0.1373
 5551UDC     C561055  14.507  11.653  11.667  0.2978 -0.8304  0.9345
 5551UDC     C661056  14.412  11.758  11.729 -1.0811  0.2108  0.6452
 5551UDC     C761057  14.381  11.706  11.867 -1.0557  0.0371 -0.4657
 5551UDC     C861058  14.376  11.808  11.991  0.9962  0.9398  1.5238
 5551UDC     C961059  14.459  11.774  12.115  0.5958  1.5133  0.1357
 5551UDC    C1061060  14.480  11.625  12.138 -0.3134  0.0448  0.0600
 5551UDC    C1161061  14.589  11.599  12.246 -0.3472 -0.1023  0.2805
 5552UDC     C161062  15.225  18.713   7.549  0.0633 -0.6435 -1.0145
 5552UDC     C261063  15.274  18.862   7.559 -1.0635  0.1293 -0.2162
 5552UDC     C361064  15.336  18.925   7.435 -0.1473  0.6206 -0.3615
 5552UDC     C461065  15.387  19.061   7.478 -0.4556  0.0551  0.6036
 5552UDC     C561066  15.268  19.153   7.448  0.3185 -0.0277 -0.0329
 5552UDC     C661067  15.238  19.174   7.301  0.7331  0.2510 -0.1008
 5552UDC     C761068  15.346  19.235   7.210  0.0612 -0.2714 -0.3482
 5552UDC     C861069  15.355  19.393   7.222  0.1265  0.3537 -1.0273
 5552UDC     C961070  15.424  19.452   7.344 -0.6442 -0.4130 -0.0738
 5552UDC    C1061071  15.544  19.538   7.308  0.2878  0.3020  0.4787
 5552UDC    C1161072  15.651  19.466   7.217 -1.9238  1.1699  0.2167
 5553UDC     C161073  13.471   9.351   6.772  0.1728  0.3630  0.5967
 5553UDC     C261074  13.404   9.208   6.753 -0.0634 -0.2475  0.3000
 5553UDC     C361075  13.427   9.132   6.618  0.1213 -0.4404  0.3665
 5553UDC     C461076  13.347   9.008   6.592 -0.1492  0.7112  0.2720
 5553UDC     C561077  13.232   8.995   6.696 -0.0709  0.9996  0.8018
 5553UDC     C661078  13.138   8.878   6.683  0.1231 -0.0234 -0.3913
 5553UDC     C761079  13.071   8.848   6.820 -0.0133 -0.1227 -0.8634
 5553UDC     C861080  12.927   8.890   6.843  0.1820  0.5815 -1.2043
 5553UDC     C961081  12.855   8.754   6.901 -0.8443 -0.5443 -0.3063
 5553UDC    C1061082  12.721   8.699   6.844 -0.3278 -0.3691 -0.2267
 5553UDC    C1161083  12.664   8.782   6.729  0.6675 -0.2815  0.4430
 5554UDC     C161084   9.627  18.945  10.352  0.5068  0.2633 -0.0507
 5554UDC     C261085   9.582  19.087  10.398  0.4310  0.6865  0.1775
 5554UDC     C361086   9.663  19.107  10.522  0.5873 -1.1546  0.3743
 5554UDC     C461087   9.631  19.251  10.569  0.9380 -0.2876 -0.5478
 5554UDC     C561088   9.729  19.278  10.687 -0.0742 -0.0423  0.4957
 5554UDC     C661089   9.872  19.285  10.636 -0.7940 -0.7877  0.5487
 5554UDC     C761090   9.976  19.318  10.745  0.4480  0.4518 -0.4062
 5554UDC     C861091  10.099  19.380  10.675  0.2811 -0.3875  0.0106
 5554UDC     C961092  10.228  19.350  10.760  0.1295 -0.8122  0.0103
 5554UDC    C1061093  10.352  19.430  10.706  0.7495 -0.5986 -0.4192
 5554UDC    C1161094  10.482  19.357  10.681  0.2615 -0.1169  0.3760
 5555UDC     C161095  16.297  19.992  12.922  0.2348  0.2309 -0.6178
 5555UDC     C261096  16.405  20.101  12.924 -0.1180 -1.0946 -0.9551
 5555UDC     C361097  16.361  20.252  12.923 -1.0293 -0.0712  0.9557
 5555UDC     C461098  16.439  20.352  12.831 -0.7129  0.3098  1.0539
 5555UDC     C561099  16.403  20.296  12.690  1.4560 -0.3632 -0.7729
 5555UDC     C661100  16.505  20.234  12.598 -0.9612  0.3475 -0.3104
 5555UDC     C761101  16.634  20.188  12.674  0.7468 -0.1354  0.3677
 5555UDC     C861102  16.732  20.100  12.596  0.4064 -0.3595 -0.8597
 5555UDC     C961103  16.835  20.037  12.688 -0.8357  0.0304 -0.8365
 5555UDC    C1061104  16.783  19.907  12.756  0.1822  0.4373  0.5040
 5555UDC    C1161105  16.883  19.844  12.852 -0.6448 -0.7336  0.3657
 5556UDC     C161106   8.833  15.480   3.251  0.3970 -0.1122  0.3324
 5556UDC     C261107   8.741  15.588   3.306  0.1973 -1.3689  0.1196
 5556UDC     C361108   8.626  15.602   3.210  0.0405 -1.2977  1.0775
 5556UDC     C461109   8.516  15.685   3.263  0.1343 -0.3495 -0.5940
 5556UDC     C561110   8.429  15.739   3.155  0.1398 -0.9194 -0.1315
 5556UDC     C661111   8.281  15.733   3.179  0.4246 -0.5603  0.6698
 5556UDC     C761112   8.196  15.808   3.081  0.2254  0.3431 -0.4039
 5556UDC     C861113   8.043  15.816   3.112 -0.9116  0.2883  0.1126
 5556UDC     C961114   7.994  15.896   3.230  0.2105  0.6543  1.6178
 5556UDC    C1061115   7.850  15.878   3.289 -0.0343  0.4835  0.7097
 5556UDC    C1161116   7.752  15.900   3.173  0.9152  1.0349  0.6693
 5557UDC     C161117   6.134  15.789  18.106  0.5573  0.1008 -1.0152
 5557UDC     C261118   6.095  15.918  18.031 -0.4557  0.2673 -0.3269
 5557UDC     C361119   6.138  16.050  18.098 -0.7149  0.4266  0.4796
 5557UDC     C461120   6.057  16.062  18.226  0.1634 -0.0092  0.1370
 5557UDC     C561121   5.907  16.048  18.198  0.5040  1.5444  1.2581
 5557UDC     C661122   5.828  16.123  18.080 -0.5971  0.0359 -0.3386
 5557UDC     C761123   5.669  16.111  18.106 -0.5420  0.1198  0.0674
 5557UDC     C861124   5.600  16.021  18.008  0.6177 -0.1847 -0.6920
 5557UDC     C961125   5.447  16.009  18.030  0.0819  0.3182 -0.1467
 5557UDC    C1061126   5.367  15.917  17.936  0.5142  0.1867 -1.2701
 5557UDC    C1161127   5.210  15.918  17.958 -0.9598 -1.1784  0.0430
 5558UDC     C161128   1.987  12.077   0.147  0.8214  0.3258  0.7008
 5558UDC     C261129   1.995  11.920   0.140  0.4982  0.3458  0.5763
 5558UDC     C361130   1.948  11.839   0.264  0.1132 -0.3096 -0.7450
 5558UDC     C461131   1.799  11.874   0.288 -0.1150 -0.6952  0.3018
 5558UDC     C561132   1.713  11.837   0.165 -0.0332  0.6328 -0.6198
 5558UDC     C661133   1.665  11.690   0.166  0.1151 -0.4160  0.1509
 5558UDC     C761134   1.589  11.635   0.054  0.4697 -0.1417  0.3131
 5558UDC     C861135   1.535  11.497   0.076 -0.4003  1.5237 -0.1054
 5558UDC     C961136   1.648  11.395   0.069 -0.0058 -0.5386  0.1862
 5558UDC    C1061137   1.624  11.259   0.115 -0.7094  0.9715  0.6221
 5558UDC    C1161138   1.585  11.249   0.265 -0.7200  0.0549 -0.5620
 5559UDC     C161139   7.813  14.936  18.447 -0.2224 -0.1994 -0.0504
 5559UDC     C261140   7.944  14.947  18.366 -0.3804 -0.7968  0.7038
 5559UDC     C361141   7.944  14.851  18.243 -1.1715 -0.1453  0.4386
 5559UDC     C461142   7.861  14.893  18.118 -0.6282  0.2414  0.0619
 5559UDC     C561143   7.887  14.804  18.004  0.2087  0.7251 -0.3588
 5559UDC     C661144   8.035  14.826  17.956 -0.6184 -0.5827 -0.2171
 5559UDC     C761145   8.059  14.970  17.890 -0.4564  1.0676  0.2510
 5559UDC     C861146   8.211  15.013  17.884  1.0764  0.1594  0.2551
 5559UDC     C961147   8.231  15.167  17.906  0.9170 -0.4665 -0.1238
 5559UDC    C1061148   8.168  15.258  17.801 -0.3297  0.5953  0.7385
 5559UDC    C1161149   8.181  15.401  17.850  0.3906 -0.6564 -0.4476
 5560UDC     C161150   2.675   4.761  15.883  0.4694  0.5909  0.1254
 5560UDC     C261151   2.717   4.779  15.734 -0.2194  1.0917 -0.5430
 5560UDC     C361152   2.668   4.671  15.629  0.8832 -0.0176  0.3700
 5560UDC     C461153   2.510   4.697  15.617 -0.2290  0.0423  0.9959
 5560UDC     C561154   2.481   4.766  15.485  0.3400 -1.0443 -1.2232
 5560UDC     C661155   2.525   4.915  15.452 -0.0037 -0.4887 -0.4326
 5560UDC     C761156   2.460   4.993  15.337  0.5061 -0.7688  0.5842
 5560UDC     C861157   2.538   4.972  15.207 -0.7843 -0.7508  0.1496
 5560UDC     C961158   2.464   4.979  15.065 -1.1503  0.1159 -0.3048
 5560UDC    C1061159   2.559   4.982  14.942  0.8432 -1.3055 -0.3696
 5560UDC    C1161160   2.689   5.054  14.956 -0.2529 -0.8701 -0.3308
 5561UDC     C161161  16.822  16.077   8.173  0.5826  0.9926 -0.5792
 5561UDC     C261162  16.767  16.112   8.032  0.5913  0.1127 -0.1286
 5561UDC     C361163  16.610  16.096   8.005  0.0296  0.1738 -1.1090
 5561UDC     C461164  16.564  16.055   7.868  0.1010 -0.4342  0.8553
 5561UDC     C561165  16.638  15.930   7.808  0.6226 -0.4065 -0.5157
 5561UDC     C661166  16.616  15.917   7.655 -0.2809 -0.7057  0.3882
 5561UDC     C761167  16.731  15.983   7.583 -1.0013 -0.0211  0.2758
 5561UDC     C861168  16.747  15.970   7.423 -0.1508 -0.5537  0.1381
 5561UDC     C961169  16.876  16.037   7.380  0.5253 -0.3799  0.0151
 5561UDC    C1061170  16.999  15.949   7.412  0.0783 -0.9697  0.0121
 5561UDC    C1161171  17.109  16.039   7.472 -0.0040  0.5948  0.2204
 5562UDC     C161172  12.336   4.988  17.820  0.8062 -1.0333 -0.6066
 5562UDC     C261173  12.370   5.133  17.800 -1.6612 -0.4667 -0.6180
 5562UDC     C361174  12.260   5.230  17.739 -0.2018  0.3590  0.1456
 5562UDC     C461175  12.318   5.319  17.619  1.4188  1.0304 -0.2760
 5562UDC     C561176  12.376   5.243  17.495  0.2182  0.2158 -0.1469
 5562UDC     C661177  12.434   5.325  17.374 -0.0500  0.1434 -0.0699
 5562UDC     C761178  12.454   5.225  17.259  0.0923  0.6176  0.4947
 5562UDC     C861179  12.412   5.249  17.107  0.1922 -0.8753 -0.1689
 5562UDC     C961180  12.454   5.157  16.995 -0.1294  0.0139  0.4864
 5562UDC    C1061181  12.606   5.143  16.976  0.1255  0.0148 -0.9111
 5562UDC    C1161182  12.641   5.274  16.901  0.0367  0.5529 -0.0197
 5563UDC     C161183   8.497  12.196  13.551 -0.7253  0.0623  0.4762
 5563UDC     C261184   8.632  12.207  13.627  0.4154 -0.4247  0.0192
 5563UDC     C361185   8.773  12.183  13.564 -1.1417  0.3548 -1.1655
 5563UDC     C461186   8.856  12.204  13.699  0.0465  0.2140  0.8635
 5563UDC     C561187   8.941  12.334  13.714  0.3677  0.3166 -0.6249
 5563UDC     C661188   8.950  12.396  13.856  0.2819  0.7928 -0.1912
 5563UDC     C761189   9.047  12.513  13.866  0.3856 -0.7219  1.0567
 5563UDC     C861190   8.990  12.645  13.799  0.7310  0.8936  0.2052
 5563UDC     C961191   9.097  12.752  13.773  0.5548  1.5468 -0.0996
 5563UDC    C1061192   9.038  12.893  13.763 -0.6746 -0.0737 -0.0204
 5563UDC    C1161193   9.115  12.983  13.866  0.1732  0.4913  0.1402
 5564UDC     C161194   8.626  10.076  17.139 -0.9279 -1.0916 -0.6270
 5564UDC     C261195   8.591  10.087  17.284 -0.2771  0.1172 -0.0774
 5564UDC     C361196   8.622  10.222  17.355  0.2823 -0.6281 -1.0723
 5564UDC     C461197   8.545  10.254  17.486  0.0760  0.8916 -0.3144
 5564UDC     C561198   8.612  10.198  17.611 -0.7367  0.9545 -0.5182
 5564UDC     C661199   8.513  10.148  17.719 -0.8689 -0.5812 -0.9264
 5564UDC     C761200   8.603  10.058  17.812 -0.4838  0.5564  0.7235
 5564UDC     C861201   8.610   9.909  17.766 -0.3958 -1.2079 -1.1399
 5564UDC     C961202   8.691   9.819  17.862 -0.6697  0.0158 -0.2675
 5564UDC    C1061203   8.682   9.673  17.829 -0.0619  1.2486 -0.4011
 5564UDC    C1161204   8.775   9.598  17.926  0.7251 -0.6232  0.5043
 5565UDC     C161205  14.860  13.700  19.836  0.0612  0.3706  0.3858
 5565UDC     C261206  14.751  13.752  19.932 -0.4540  1.1837 -0.0852
 5565UDC     C361207  14.688  13.660  20.043  0.4431  0.8721  0.2877
 5565UDC     C461208  14.776  13.599  20.161  0.1105  0.9312 -0.7747
 5565UDC     C561209  14.674  13.520  20.252 -0.7205  0.4402  0.3721
 5565UDC     C661210  14.735  13.397  20.323  0.0917 -0.1626  0.7106
 5565UDC     C761211  14.651  13.268  20.323  0.1878  0.3726 -0.6469
 5565UDC     C861212  14.751  13.162  20.383  0.4313 -0.2679 -1.2893
 5565UDC     C961213  14.671  13.032  20.382 -0.2060  0.5245 -0.3595
 5565UDC    C1061214  14.780  12.921  20.395 -1.2586 -0.9623  0.5688
 5565UDC    C1161215  14.860  12.905  20.258 -0.9081 -0.3928 -0.8299
 5566UDC     C161216  16.124  18.465   1.588 -0.1255 -0.7213  0.7379
 5566UDC     C261217  16.274  18.486   1.603 -0.1866  0.3554 -0.0339
 5566UDC     C361218  16.336  18.408   1.722 -0.3810  0.8497  0.7383
 5566UDC     C461219  16.469  18.458   1.770  0.1834  0.0057 -0.0886
 5566UDC     C561220  16.575  18.370   1.701 -0.3450  0.2349  0.0139
 5566UDC     C661221  16.715  18.417   1.734  1.3210  0.9750  0.1978
 5566UDC     C761222  16.820  18.401   1.625 -0.5256 -0.0123 -0.1481
 5566UDC     C861223  16.802  18.485   1.490 -0.9827  0.6415 -1.0154
 5566UDC     C961224  16.838  18.637   1.498 -0.8675  0.6345 -0.2135
 5566UDC    C1061225  16.817  18.743   1.383 -0.2380 -0.1076 -0.5729
 5566UDC    C1161226  16.905  18.870   1.381 -0.8618 -0.7671 -0.1414
 5567UDC     C161227  14.103   5.620   3.503  0.1773 -0.7732  0.6501
 5567UDC     C261228  14.255   5.620   3.494 -0.4270  0.5144  0.8061
 5567UDC     C361229  14.322   5.524   3.605 -0.3025  0.4359 -0.3729
 5567UDC     C461230  14.463   5.499   3.550  0.0823 -0.4902  0.2262
 5567UDC     C561231  14.452   5.428   3.418 -0.1801 -0.1891  0.4766
 5567UDC     C661232  14.580   5.373   3.350  0.4565 -0.9509  0.1874
 5567UDC     C761233  14.561   5.353   3.195 -0.0948 -0.7805 -1.2475
 5567UDC     C861234  14.694   5.346   3.124 -0.4791  0.4032 -0.3401
 5567UDC     C961235  14.660   5.294   2.981 -0.3967 -0.3192 -0.1026
 5567UDC    C1061236  14.580   5.378   2.886 -0.1882  0.0822 -0.5154
 5567UDC    C1161237  14.475   5.304   2.809 -0.4705 -0.1696  1.1371
 5568UDC     C161238   4.020   4.565  17.348  0.7566 -1.0598  0.3386
 5568UDC     C261239   3.965   4.662  17.455  0.7382  0.0387 -0.3148
 5568UDC     C361240   3.935   4.592  17.590  0.3569 -0.0754  1.0060
 5568UDC     C461241   3.870   4.458  17.573 -0.2820  0.6913 -0.2558
 5568UDC     C561242   3.896   4.379  17.707  1.1725  0.8800 -1.3289
 5568UDC     C661243   3.862   4.222  17.703 -0.5828 -0.2775  0.1366
 5568UDC     C761244   3.939   4.165  17.576  0.3520  0.4871  0.1209
 5568UDC     C861245   3.978   4.008  17.583  0.1320 -0.5633  0.7059
 5568UDC     C961246   4.104   3.982  17.501  0.3979  0.3775  1.4997
 5568UDC    C1061247   4.146   3.837  17.530 -0.4488  0.3142  0.0822
 5568UDC    C1161248   4.064   3.731  17.456 -0.6334  0.1290 -0.6126
 5569UDC     C161249   3.807   0.000  18.269 -0.2972  0.3025  0.5839
 5569UDC     C261250   3.907  -0.002  18.149  0.7666  0.5001  0.8091
 5569UDC     C361251   3.856   0.009  17.998  0.0473  0.4476 -0.5981
 5569UDC     C461252   3.885  -0.114  17.913  0.6667 -0.5963 -0.7266
 5569UDC     C561253   3.837  -0.087  17.765  0.3945  0.3884  0.2819
 5569UDC     C661254   3.687  -0.114  17.762  0.6979  0.1442  0.0639
 5569UDC     C761255   3.638  -0.083  17.616  0.7798  0.7772  0.2153
 5569UDC     C861256   3.493  -0.033  17.610  0.0361 -0.1083  0.3461
 5569UDC     C961257   3.431   0.000  17.478 -0.1525 -0.8863 -0.4609
 5569UDC    C1061258   3.298   0.085  17.484 -0.3616 -0.6304 -0.0765
 5569UDC    C1161259   3.158   0.013  17.498 -0.1242 -0.5582 -1.5975
 5570UDC     C161260  17.570  14.912   4.272 -0.1257 -0.9854  0.0086
 5570UDC     C261261  17.426  14.956   4.249  1.3003 -0.1762  0.0340
 5570UDC     C361262  17.439  15.088   4.161 -0.5346 -1.0030  1.5122
 5570UDC     C461263  17.548  15.193   4.201  0.6282  0.4863  0.1711
 5570UDC     C561264  17.504  15.238   4.344  0.0650 -0.0017 -0.7069
 5570UDC     C661265  17.605  15.327   4.412 -0.3510 -0.4679  0.1099
 5570UDC     C761266  17.561  15.368   4.560  0.4194  0.0293  0.6366
 5570UDC     C861267  17.630  15.495   4.610 -0.1077  0.5860  0.2728
 5570UDC     C961268  17.615  15.613   4.510 -0.8481 -0.7492 -1.4023
 5570UDC    C1061269  17.699  15.732   4.567  0.5914  0.1678  0.2632
 5570UDC    C1161270  17.685  15.846   4.462 -0.0478  0.0008  0.0686
 5571UDC     C161271   5.608  18.816   5.042  0.5467 -0.5382 -0.2890
 5571UDC     C261272   5.594  18.923   4.941 -0.3651  0.0776 -0.0870
 5571UDC     C361273   5.593  19.066   4.998 -0.2311  0.9438  1.1678
 5571UDC     C461274   5.549  19.177   4.904  0.5955 -0.9709  0.0707
 5571UDC     C561275   5.399  19.187   4.860  0.0500 -0.5392  0.3039
 5571UDC     C661276   5.380  19.330   4.813 -0.6554 -0.4889  0.3708
 5571UDC     C761277   5.234  19.366   4.772 -0.7902 -0.8114  0.1055
 5571UDC     C861278   5.229  19.452   4.644 -0.3459 -0.3030  1.2721
 5571UDC     C961279   5.086  19.503   4.618 -0.6024  0.3087 -0.1499
 5571UDC    C1061280   5.061  19.610   4.726 -0.5383  0.6238  0.3834
 5571UDC    C1161281   4.914  19.637   4.703 -0.5240  0.8919  0.0733
 5572UDC     C161282  19.375  16.506  18.637 -0.3805 -1.2339  0.6266
 5572UDC     C261283  19.224  16.514  18.676 -0.7322 -0.4456  0.1683
 5572UDC     C361284  19.210  16.632  18.784  0.1881  0.6110  1.1390
 5572UDC     C461285  19.061  16.645  18.831 -0.3637 -0.0387  0.0443
 5572UDC     C561286  19.000  16.528  18.901 -0.3687 -0.0396 -0.3604
 5572UDC     C661287  18.882  16.461  18.830 -0.3972  0.3196 -0.4656
 5572UDC     C761288  18.791  16.581  18.777  0.6312 -0.6303 -0.2932
 5572UDC     C861289  18.659  16.530  18.700 -0.2483  0.0374 -0.6674
 5572UDC     C961290  18.537  16.631  18.689  1.0727 -0.5846  0.2177
 5572UDC    C1061291  18.404  16.579  18.629 -0.1110 -0.5421  0.3551
 5572UDC    C1161292  18.278  16.650  18.688  0.4191 -0.2597  0.2878
 5573UDC     C161293  17.283   8.828  17.631  0.0836 -1.0069  0.9663
 5573UDC     C261294  17.386   8.823  17.752  0.0314 -0.4725  0.8267
 5573UDC     C361295  17.529   8.867  17.746  0.5424 -1.2556 -0.6500
 5573UDC     C461296  17.605   8.865  17.611 -0.0089  0.6975 -0.8431
 5573UDC     C561297  17.729   8.951  17.599  0.3363 -0.7300  0.2491
 5573UDC     C661298  17.827   8.928  17.717 -1.1352 -0.1097 -0.4719
 5573UDC     C761299  17.965   9.007  17.709  0.1729  0.6746 -0.5428
 5573UDC     C861300  18.050   9.017  17.833  0.7891  0.0668  0.7129
 5573UDC     C961301  18.030   9.164  17.884 -0.4996  0.0722  0.7285
 5573UDC    C1061302  18.113   9.268  17.804  0.1859  0.1919  0.4446
 5573UDC    C1161303  18.089   9.407  17.848  0.4401  0.8264 -1.5651
 5574UDC     C161304   4.731   1.568  14.575  0.1646  0.0697  0.2776
 5574UDC     C261305   4.581   1.602  14.604 -0.8006 -0.5326 -0.3117
 5574UDC     C361306   4.541   1.591  14.756 -1.0149 -0.1659  0.8759
 5574UDC     C461307   4.383   1.592  14.759 -0.7786  0.3948 -0.7691
 5574UDC     C561308   4.317   1.671  14.652 -0.1654  0.1174 -0.8741
 5574UDC     C661309   4.188   1.617  14.580  0.6652  0.8305 -0.2260
 5574UDC     C761310   4.081   1.560  14.675  0.0811 -0.7060 -1.3519
 5574UDC     C861311   3.970   1.474  14.614  1.8388 -0.6179 -0.2216
 5574UDC     C961312   4.000   1.333  14.571 -0.7021 -0.3990 -0.2642
 5574UDC    C1061313   3.889   1.276  14.477 -0.1743  1.0313 -0.0959
 5574UDC    C1161314   3.952   1.149  14.411 -0.4110 -0.3403 -0.6810
 5575UDC     C161315   9.026  11.196  13.242  0.4821  0.4448 -0.0419
 5575UDC     C261316   8.897  11.264  13.179 -0.8157  0.1237  0.0586
 5575UDC     C361317   8.925  11.353  13.064  0.1779  1.0309 -0.5777
 5575UDC     C461318   8.798  11.416  13.005 -0.0108 -0.1458 -0.8131
 5575UDC     C561319   8.843  11.495  12.884 -0.2014  0.0454 -0.3795
 5575UDC     C661320   8.920  11.406  12.788 -0.2885 -0.4567  0.1644
 5575UDC     C761321   8.816  11.402  12.670  0.3557 -0.1494  0.0366
 5575UDC     C861322   8.846  11.294  12.573  0.2229  0.0672 -0.0673
 5575UDC     C961323   8.836  11.349  12.432 -0.7112  0.2784 -1.1060
 5575UDC    C1061324   8.899  11.245  12.333  0.5062  0.1845  0.3969
 5575UDC    C1161325   8.894  11.261  12.186 -1.0181 -0.8007  0.0725
 5576UDC     C161326  14.864   8.546   6.386 -1.3810 -0.1607  1.8563
 5576UDC     C261327  14.762   8.460   6.307  0.6125  0.2148 -0.5902
 5576UDC     C361328  14.693   8.519   6.176 -0.2002  0.2447  0.2475
 5576UDC     C461329  14.638   8.402   6.084 -1.3467  1.1027 -1.1041
 5576UDC     C561330  14.588   8.441   5.951  0.3156 -0.5873 -0.1255
 5576UDC     C661331  14.667   8.569   5.911 -0.1245 -1.0682 -0.0905
 5576UDC     C761332  14.651   8.610   5.761 -0.3784 -0.7748 -0.9040
 5576UDC     C861333  14.771   8.584   5.664 -0.5467 -0.5690  0.4254
 5576UDC     C961334  14.776   8.665   5.542 -0.1403  0.2179  0.7116
 5576UDC    C1061335  14.628   8.682   5.496 -0.2221  1.0595 -0.0253
 5576UDC    C1161336  14.647   8.806   5.408 -0.1011 -0.6266 -0.1280
 5577UDC     C161337  10.396   7.111  10.472  0.3442  0.5071 -0.1803
 5577UDC     C261338  10.291   7.057  10.369 -0.4672  0.9241 -0.7365
 5577UDC     C361339  10.182   7.146  10.310 -0.7704  0.7776 -0.4616
 5577UDC     C461340  10.237   7.273  10.251 -0.2951 -0.3824 -0.9868
 5577UDC     C561341  10.145   7.362  10.158  0.0773  0.0648 -0.2228
 5577UDC     C661342  10.142   7.317  10.010 -1.2677 -0.2619  1.2151
 5577UDC     C761343  10.091   7.430   9.908 -1.0128  1.0567 -0.4638
 5577UDC     C861344   9.955   7.501   9.948 -0.0183  1.3945 -0.0886
 5577UDC     C961345   9.843   7.549   9.850 -0.4702 -0.3725 -1.1915
 5577UDC    C1061346   9.752   7.658   9.914  0.5667  0.8561  0.1671
 5577UDC    C1161347   9.825   7.761  10.006 -0.8328  0.6210  1.0640
 5578UDC     C161348   1.682   1.795   5.079  1.1098  0.9455 -0.0253
 5578UDC     C261349   1.688   1.658   5.010  0.6587 -1.0363  0.7837
 5578UDC     C361350   1.687   1.522   5.082  1.0914  0.6868 -0.2688
 5578UDC     C461351   1.675   1.395   4.994  0.1996 -0.1709  0.6380
 5578UDC     C561352   1.533   1.334   4.978 -1.2244 -0.1488  0.2697
 5578UDC     C661353   1.423   1.413   4.912  0.1802 -0.7221  0.6595
 5578UDC     C761354   1.286   1.335   4.928  0.1566 -0.2443  1.0200
 5578UDC     C861355   1.152   1.411   4.930  0.3335  0.9741  0.0586
 5578UDC     C961356   1.123   1.464   4.788  0.4003  0.9947  0.5135
 5578UDC    C1061357   0.982   1.495   4.750 -0.5446  0.0140 -0.1501
 5578UDC    C1161358   0.982   1.607   4.645 -0.0561 -0.1107  0.4360
 5579UDC     C161359  13.070   1.040   7.911  0.9935 -0.0446 -0.1511
 5579UDC     C261360  13.178   1.062   7.803  0.1859 -1.3546 -0.1354
 5579UDC     C361361  13.309   1.072   7.887 -0.9306 -0.3005  0.7635
 5579UDC     C461362  13.321   0.924   7.935  0.2605  0.4803 -0.8702
 5579UDC     C561363  13.308   0.829   7.817 -0.5930 -0.0724  0.4366
 5579UDC     C661364  13.357   0.683   7.835 -0.1060 -0.2356  0.1843
 5579UDC     C761365  13.419   0.633   7.709 -0.7111 -0.6789 -0.4340
 5579UDC     C861366  13.307   0.617   7.611  0.4423  0.3080  0.4375
 5579UDC     C961367  13.332   0.575   7.461  0.1767  0.5260  0.1051
 5579UDC    C1061368  13.196   0.566   7.389  0.7635 -0.5837  0.5811
 5579UDC    C1161369  13.226   0.488   7.254 -0.2025 -0.4918  1.1578
 5580UDC     C161370  18.830   7.777   9.803  0.5333  0.1218 -0.4024
 5580UDC     C261371  18.724   7.861   9.878 -0.2951  0.0559  0.5858
 5580UDC     C361372  18.643   7.933   9.770 -0.3172  0.2317 -0.3930
 5580UDC     C461373  18.542   7.849   9.678 -0.9237 -0.4591  0.3296
 5580UDC     C561374  18.569   7.888   9.535  0.2197 -0.0636  0.5639
 5580UDC     C661375  18.712   7.857   9.491 -0.1151  0.7625 -0.0371
 5580UDC     C761376  18.762   7.813   9.349  0.7072 -0.3400  0.4101
 5580UDC     C861377  18.906   7.852   9.344  0.4062  0.6619 -0.1804
 5580UDC     C961378  18.921   8.002   9.376  1.4148  0.5194 -0.8173
 5580UDC    C1061379  19.032   7.997   9.474 -0.7196 -0.4671  0.1025
 5580UDC    C1161380  19.084   8.132   9.539 -0.8420  1.7153  0.3531
 5581UDC     C161381   1.584  11.020  11.212 -0.1487  0.1449  0.6156
 5581UDC     C261382   1.593  11.174  11.172 -0.1989  0.1722 -0.1905
 5581UDC     C361383   1.634  11.193  11.026 -0.8908  0.3891  0.7065
 5581UDC     C461384   1.785  11.199  11.003 -0.0273 -0.3357  0.1347
 5581UDC     C561385   1.826  11.239  10.854 -0.2963 -0.8151 -1.2077
 5581UDC     C661386   1.774  11.138  10.749 -0.3782  1.0082 -0.8939
 5581UDC     C761387   1.883  11.122  10.631  1.7850 -0.1585  0.2769
 5581UDC     C861388   1.858  10.986  10.560  0.0339  0.1903  0.4150
 5581UDC     C961389   1.954  10.982  10.437 -0.0486 -0.2521 -0.9596
 5581UDC    C1061390   1.927  10.858  10.356  0.3893  0.3496  1.0921
 5581UDC    C1161391   1.969  10.891  10.207 -0.0886 -0.0061 -1.0188
 5582UDC     C161392   0.490  18.079   2.548 -0.0626 -0.3346 -0.2868
 5582UDC     C261393   0.441  18.190   2.452 -0.3166 -0.8375 -0.0812
 5582UDC     C361394   0.505  18.163   2.308 -0.7058  0.0990  0.0026
 5582UDC     C461395   0.539  18.303   2.254 -1.0803  0.7263 -0.6506
 5582UDC     C561396   0.488  18.333   2.112 -0.0588  0.2467  0.1759
 5582UDC     C661397   0.593  18.400   2.022  0.1684 -0.3765 -0.0383
 5582UDC     C761398   0.556  18.459   1.883  0.5621 -0.0219 -0.8559
 5582UDC     C861399   0.654  18.552   1.813 -0.2377  0.2763 -0.0705
 5582UDC     C961400   0.624  18.702   1.796 -0.6067  0.3753 -0.5165
 5582UDC    C1061401   0.740  18.801   1.756 -0.1599  0.6551 -0.0935
 5582UDC    C1161402   0.894  18.771   1.756 -0.2729  1.0528 -0.0745
 5583UDC     C161403   3.677  10.438  19.587  0.9206 -0.0602  0.3983
 5583UDC     C261404   3.789  10.516  19.527 -0.7471  0.6146 -0.3284
 5583UDC     C361405   3.859  10.443  19.408  0.8935  0.6628 -0.1407
 5583UDC     C461406   4.006  10.487  19.380  0.7233  0.1483 -0.0261
 5583UDC     C561407   4.043  10.632  19.344  1.3001  0.1028 -0.5665
 5583UDC     C661408   4.187  10.670  19.328 -0.9135  0.5766 -0.9761
 5583UDC     C761409   4.191  10.816  19.312  0.1306  0.2991 -0.2585
 5583UDC     C861410   4.331  10.872  19.340  0.2800 -0.7037 -0.5393
 5583UDC     C961411   4.357  10.868  19.487 -0.2822  0.8446  0.1460
 5583UDC    C1061412   4.505  10.916  19.495 -0.4126 -0.0238 -0.4400
 5583UDC    C1161413   4.569  10.943  19.637  0.0792  0.2663  0.3814
 5584UDC     C161414  17.134  13.625  12.044  0.2606 -0.5662  0.8098
 5584UDC     C261415  17.164  13.470  12.070 -0.3553 -0.6305 -1.2195
 5584UDC     C361416  17.209  13.388  11.957  0.0284  0.2435 -0.1482
 5584UDC     C461417  17.314  13.285  12.002  0.0402  0.4414 -1.2031
 5584UDC     C561418  17.354  13.208  11.871 -1.6320  0.6534  0.2944
 5584UDC     C661419  17.327  13.287  11.738 -0.7502 -0.2429  0.3621
 5584UDC     C761420  17.458  13.311  11.663 -0.8685  0.5045 -0.1215
 5584UDC     C861421  17.431  13.339  11.516 -1.0595  0.5853  0.0916
 5584UDC     C961422  17.298  13.408  11.484  0.1691 -0.9449  0.4238
 5584UDC    C1061423  17.290  13.437  11.340  1.0361 -0.3869 -0.0576
 5584UDC    C1161424  17.170  13.370  11.281  0.5441 -0.6623  0.6160
 5585UDC     C161425   1.271   5.583   4.303 -0.3082 -0.7217  0.3657
 5585UDC     C261426   1.211   5.721   4.291  1.0349  0.7071 -0.5750
 5585UDC     C361427   1.244   5.816   4.412 -0.5617  0.7053 -0.1518
 5585UDC     C461428   1.162   5.939   4.441  0.6538  0.3659  1.1615
 5585UDC     C561429   1.014   5.904   4.449 -0.0970 -0.0858  0.0747
 5585UDC     C661430   0.945   6.011   4.529  0.0965  0.0488 -0.5725
 5585UDC     C761431   0.937   6.148   4.458  0.2163  1.0506 -0.1248
 5585UDC     C861432   0.888   6.258   4.552 -0.4013 -1.1592 -0.3196
 5585UDC     C961433   0.767   6.220   4.644 -0.5902  0.1140 -0.1117
 5585UDC    C1061434   0.707   6.341   4.710  0.4601  0.2446 -0.5841
 5585UDC    C1161435   0.815   6.407   4.795 -0.2348  0.4899  0.3106
 5586UDC     C161436  15.010   5.949   1.121  0.2732 -0.8210  0.8213
 5586UDC     C261437  15.159   5.956   1.159 -0.8901  1.0955 -0.6546
 5586UDC     C361438  15.208   5.982   1.307 -0.7169  0.1726 -0.1025
 5586UDC     C461439  15.356   6.011   1.299 -0.5743 -0.2547  0.0250
 5586UDC     C561440  15.407   6.079   1.429  0.8624  0.6042 -0.9535
 5586UDC     C661441  15.372   5.974   1.543  1.1771  0.0773 -0.0308
 5586UDC     C761442  15.462   5.852   1.533 -0.7526  0.6737  0.3511
 5586UDC     C861443  15.441   5.739   1.644  0.1263 -0.1995 -0.2938
 5586UDC     C961444  15.507   5.600   1.632 -0.0359 -0.1355  0.6326
 5586UDC    C1061445  15.504   5.513   1.760 -0.1449 -0.7347 -0.4189
 5586UDC    C1161446  15.545   5.370   1.732 -0.3224 -0.3442 -0.9748
 5587UDC     C161447   8.528   5.397   3.852  0.7631  0.2045 -0.1473
 5587UDC     C261448   8.482   5.412   3.710  0.4420  1.1633  0.1716
 5587UDC     C361449   8.605   5.439   3.618  0.3693 -0.2904 -0.1365
 5587UDC     C461450   8.571   5.401   3.475 -0.1124 -0.0383  1.6318
 5587UDC     C561451   8.468   5.502   3.421  1.1432 -0.7033  0.2614
 5587UDC     C661452   8.438   5.521   3.261  0.8887 -0.0970 -1.3011
 5587UDC     C761453   8.506   5.627   3.183 -0.0623  0.2827 -0.0364
 5587UDC     C861454   8.406   5.682   3.081  0.4010  0.4746 -0.2534
 5587UDC     C961455   8.350   5.556   3.005  0.5637  0.1281  1.0448
 5587UDC    C1061456   8.201   5.589   2.958  0.9164  0.6123 -0.4251
 5587UDC    C1161457   8.177   5.666   2.826  0.5531  0.2730 -0.3023
 5588UDC     C161458  10.145   9.477   0.294 -0.0958  0.1021  0.1380
 5588UDC     C261459  10.258   9.390   0.247 -0.2487 -0.6358  0.2693
 5588UDC     C361460  10.239   9.370   0.098  0.8848 -1.0136  0.6145
 5588UDC     C461461  10.131   9.280   0.036  0.4607 -0.3535  0.7167
 5588UDC     C561462  10.161   9.239  -0.110 -0.5781  0.2776  0.0524
 5588UDC     C661463  10.145   9.354  -0.205  0.8430 -0.2658 -0.2594
 5588UDC     C761464  10.154   9.338  -0.358  0.6011 -0.7536  0.1510
 5588UDC     C861465  10.170   9.484  -0.411 -0.5942 -0.9723  1.3705
 5588UDC     C961466  10.271   9.498  -0.527 -0.6951 -0.0935  0.5644
 5588UDC    C1061467  10.410   9.430  -0.502 -0.9662 -0.2895  0.7912
 5588UDC    C1161468  10.527   9.442  -0.604 -0.3982  0.7495 -0.0195
 5589UDC     C161469   1.603   6.516   7.807 -0.5996 -1.0431  0.0205
 5589UDC     C261470   1.523   6.644   7.796 -0.8095  0.2959  0.1153
 5589UDC     C361471   1.386   6.611   7.737 -0.1560  0.9547  0.6273
 5589UDC     C461472   1.404   6.526   7.602 -0.9913 -0.4767  0.1513
 5589UDC     C561473   1.427   6.631   7.491  0.1156  0.4702 -0.0357
 5589UDC     C661474   1.481   6.543   7.377 -0.7194 -0.2123  0.4628
 5589UDC     C761475   1.508   6.623   7.251 -0.6313 -0.2776  1.0606
 5589UDC     C861476   1.384   6.676   7.177 -0.1147  0.8773 -0.3047
 5589UDC     C961477   1.401   6.788   7.077  0.2044  1.1861 -0.7529
 5589UDC    C1061478   1.381   6.907   7.170 -0.8777  0.0616  0.6577
 5589UDC    C1161479   1.496   7.006   7.132  0.2242  0.0245  0.4059
 5590UDC     C161480  17.576   2.315   4.502 -0.4621  0.5589  0.7383
 5590UDC     C261481  17.645   2.449   4.454  0.0318  0.3182 -1.4699
 5590UDC     C361482  17.643   2.467   4.303 -0.1592 -0.9434 -0.8515
 5590UDC     C461483  17.504   2.500   4.250  0.4675 -0.4583  0.7309
 5590UDC     C561484  17.514   2.574   4.115 -1.0849 -0.1821  0.0836
 5590UDC     C661485  17.654   2.642   4.101 -0.2447 -1.4886 -0.4191
 5590UDC     C761486  17.728   2.668   3.975  0.3909 -0.1530 -0.0474
 5590UDC     C861487  17.827   2.782   3.981 -0.8897 -0.8071  0.7215
 5590UDC     C961488  17.892   2.828   3.847  1.1630  0.9832  0.0579
 5590UDC    C1061489  18.007   2.918   3.886  0.7214  0.0413  0.5994
 5590UDC    C1161490  18.061   3.012   3.774 -0.7958  0.1392  0.5835
 5591UDC     C161491  13.835  18.052  12.757  0.3151 -1.2959 -0.2021
 5591UDC     C261492  13.774  17.912  12.747  0.9083  0.4195  0.2463
 5591UDC     C361493  13.768  17.837  12.888  0.5511 -0.9074  0.9039
 5591UDC     C461494  13.689  17.710  12.912 -1.2441 -0.0464  0.4144
 5591UDC     C561495  13.732  17.654  13.048  0.1951  0.2812  0.2695
 5591UDC     C661496  13.647  17.533  13.071 -0.3850 -0.2088  0.5196
 5591UDC     C761497  13.671  17.427  12.964  1.2536  1.0268  0.6452
 5591UDC     C861498  13.548  17.331  12.963  0.3215 -0.6124  0.3226
 5591UDC     C961499  13.546  17.184  13.001  0.6087  0.1297 -0.6615
 5591UDC    C1061500  13.582  17.138  13.147 -0.5874  0.3355 -0.2412
 5591UDC    C1161501  13.586  16.978  13.164 -0.2098 -0.2199 -0.5174
 5592UDC     C161502  15.786   5.227   6.779 -0.4318 -0.6170 -0.7473
 5592UDC     C261503  15.733   5.309   6.903  0.6128 -0.2788  0.3175
 5592UDC     C361504  15.642   5.422   6.855  0.4861 -0.1492  0.4750
 5592UDC     C461505  15.648   5.459   6.709  0.6203  0.5233  0.4712
 5592UDC     C561506  15.585   5.589   6.672  0.7279  0.7370 -0.2516
 5592UDC     C661507  15.518   5.582   6.541 -0.7729 -0.1097  0.6152
 5592UDC     C761508  15.450   5.449   6.528 -0.4133 -0.1457  0.8109
 5592UDC     C861509  15.342   5.437   6.416  0.0039 -0.4782 -0.2252
 5592UDC     C961510  15.246   5.329   6.464 -1.0461 -0.4076  0.4639
 5592UDC    C1061511  15.134   5.294   6.356  0.2217  0.2260 -1.5773
 5592UDC    C1161512  15.053   5.407   6.288  0.6964 -1.1427  0.8102
 5593UDC     C161513  19.492  16.685   9.912 -0.7464 -0.6635  0.6589
 5593UDC     C261514  19.456  16.575  10.020 -0.2936 -1.0880 -0.2054
 5593UDC     C361515  19.351  16.624  10.131  0.5856 -0.6283 -0.1085
 5593UDC     C461516  19.365  16.767  10.184 -0.5944  0.2266 -0.2476
 5593UDC     C561517  19.292  16.810  10.314  0.4180 -0.3765 -0.2371
 5593UDC     C661518  19.149  16.780  10.344  0.0469 -0.1010 -0.4013
 5593UDC     C761519  19.053  16.829  10.233  0.8932  1.0024  0.5061
 5593UDC     C861520  19.022  16.974  10.263  0.6887  0.9475  0.5632
 5593UDC     C961521  18.932  17.035  10.157  0.9732  0.1451  0.7036
 5593UDC    C1061522  19.015  17.120  10.062 -0.4983 -0.1541 -0.3780
 5593UDC    C1161523  19.106  17.225  10.136  0.5378 -0.0388  0.9952
 5594UDC     C161524  12.194   6.272   5.503 -0.9785 -0.4467 -0.3408
 5594UDC     C261525  12.135   6.140   5.560  0.2578 -0.0163 -0.1245
 5594UDC     C361526  12.030   6.160   5.671  0.2183 -0.5333  0.5305
 5594UDC     C461527  12.091   6.159   5.814  0.5749  0.5521 -0.9623
 5594UDC     C561528  12.144   6.026   5.870 -1.2351 -0.3906  0.8011
 5594UDC     C661529  12.215   6.065   6.002 -0.0015 -0.3617  0.6705
 5594UDC     C761530  12.109   6.102   6.104 -0.7172 -0.5490 -0.2137
 5594UDC     C861531  12.138   6.247   6.166  0.2961 -0.5759  0.1205
 5594UDC     C961532  12.062   6.262   6.299  0.8210 -0.3457 -0.4057
 5594UDC    C1061533  12.138   6.194   6.416 -0.3440 -1.3368  0.6309
 5594UDC    C1161534  12.283   6.236   6.405  0.5445  0.3245  0.5367
 5595UDC     C161535  17.774  10.171   0.175 -0.4496 -1.1939  0.2379
 5595UDC     C261536  17.797  10.319   0.188 -0.5755 -0.5508  0.5946
 5595UDC     C361537  17.785  10.432   0.081  1.0978 -0.2984  0.8267
 5595UDC     C461538  17.850  10.569   0.101 -0.8000  0.7819  0.0517
 5595UDC     C561539  17.781  10.684   0.172  0.8490  0.8139  0.2417
 5595UDC     C661540  17.851  10.822   0.178  0.3023  0.7711 -0.6747
 5595UDC     C761541  17.860  10.891   0.051  0.2752  0.1018  0.7264
 5595UDC     C861542  17.737  10.860  -0.030  0.0479 -0.0800  0.1691
 5595UDC     C961543  17.729  10.948  -0.155  0.2250 -0.2594  0.3648
 5595UDC    C1061544  17.865  10.947  -0.224  0.4129  0.0050  0.8210
 5595UDC    C1161545  17.860  10.818  -0.316  1.2353 -0.4666 -1.0474
 5596UDC     C161546  11.005   0.624   3.825  0.0933 -1.0444  0.1222
 5596UDC     C261547  11.143   0.587   3.760 -1.9259 -0.8152  0.4312
 5596UDC     C361548  11.235   0.480   3.827  0.1203 -0.9069  0.0366
 5596UDC     C461549  11.302   0.511   3.961  0.3235  0.5822  0.6046
 5596UDC     C561550  11.349   0.374   4.021  0.4510 -0.7075 -1.1280
 5596UDC     C661551  11.253   0.253   3.988  0.5811 -1.1882 -0.4071
 5596UDC     C761552  11.298   0.123   4.065 -0.5176  1.0601  0.6439
 5596UDC     C861553  11.320   0.133   4.216 -0.1314 -0.2560 -0.0148
 5596UDC     C961554  11.190   0.193   4.276  0.2105  0.7209  0.4160
 5596UDC    C1061555  11.181   0.221   4.423 -0.8582 -0.1931  0.7254
 5596UDC    C1161556  11.247   0.347   4.467 -0.6859 -0.8247  0.4795
 5597UDC     C161557  12.580  17.448  10.592  0.6368  1.0414 -0.3431
 5597UDC     C261558  12.635  17.398  10.462  0.4256 -0.0903  0.9972
 5597UDC     C361559  12.534  17.300  10.384 -0.6791 -0.2112 -0.0742
 5597UDC     C461560  12.578  17.228  10.259 -0.6365  1.1965  0.5419
 5597UDC     C561561  12.616  17.322  10.135  0.9493 -0.1964 -0.7058
 5597UDC     C661562  12.625  17.240  10.012 -0.6452  0.2062 -1.0721
 5597UDC     C761563  12.597  17.318   9.876  1.0596  0.1117  0.8627
 5597UDC     C861564  12.627  17.244   9.741 -0.6834 -0.0315  0.4531
 5597UDC     C961565  12.500  17.239   9.651  0.7212  0.0958  0.1076
 5597UDC    C1061566  12.385  17.146   9.701  0.2092 -1.0367 -0.1533
 5597UDC    C1161567  12.281  17.111   9.588 -0.0709 -0.1095 -0.0940
 5598UDC     C161568  13.252   2.214   2.987  0.9729  0.7273 -0.2867
 5598UDC     C261569  13.273   2.095   3.087 -1.1029  0.7340 -0.8949
 5598UDC     C361570  13.141   2.023   3.136  0.2747  1.3786 -0.4383
 5598UDC     C461571  13.046   2.019   3.016  0.1199  0.2869  0.6742
 5598UDC     C561572  12.922   1.929   3.020  0.4407 -0.8999 -0.0300
 5598UDC     C661573  12.847   1.879   2.895 -0.7660 -0.0943 -0.5294
 5598UDC     C761574  12.705   1.821   2.916  0.5513 -0.8102 -0.7566
 5598UDC     C861575  12.705   1.677   2.961 -0.4187  0.5095 -0.2067
 5598UDC     C961576  12.569   1.616   2.997  0.5797 -0.2610  0.1333
 5598UDC    C1061577  12.488   1.633   2.868 -0.6835 -0.2958 -0.8622
 5598UDC    C1161578  12.343   1.575   2.876  0.5569  0.6968  0.3631
 5599UDC     C161579   6.502  13.880   6.471 -0.3291  0.6412  0.2699
 5599UDC     C261580   6.581  14.005   6.458 -0.6155 -0.8575  0.8759
 5599UDC     C361581   6.562  14.108   6.575  0.3435  1.2332 -0.2909
 5599UDC     C461582   6.411  14.102   6.594 -0.4941  0.0538 -0.1879
 5599UDC     C561583   6.352  14.234   6.635 -0.0094 -0.3053 -0.0288
 5599UDC     C661584   6.375  14.273   6.789 -0.0309 -0.0517 -0.1170
 5599UDC     C761585   6.315  14.406   6.834  1.3607 -1.0012 -0.3447
 5599UDC     C861586   6.385  14.534   6.791  1.1810  0.3736  0.1020
 5599UDC     C961587   6.310  14.656   6.859 -0.2456 -0.2315  0.2394
 5599UDC    C1061588   6.325  14.792   6.788  0.0928 -0.3172  0.0716
 5599UDC    C1161589   6.233  14.906   6.832 -0.3156 -0.4777  0.0038
 5600UDC     C161590   4.089   6.417   7.410  2.0746  0.0834  1.1207
 5600UDC     C261591   4.099   6.542   7.509 -0.0597 -0.8638  1.1223
 5600UDC     C361592   4.077   6.512   7.653 -0.3284 -0.8068 -0.9978
 5600UDC     C461593   4.184   6.435   7.730 -0.4243 -0.3496 -0.7653
 5600UDC     C561594   4.194   6.285   7.698 -0.4169  0.3831  0.0782
 5600UDC     C661595   4.058   6.212   7.692  0.0893  0.1138 -0.5549
 5600UDC     C761596   4.068   6.057   7.704 -0.0258 -0.1375  0.5079
 5600UDC     C861597   4.152   5.979   7.603 -1.6080 -1.1010  1.1634
 5600UDC     C961598   4.101   6.000   7.454  1.0381  0.1054  0.9825
 5600UDC    C1061599   4.015   5.900   7.378  0.0321 -0.2114 -0.0268
 5600UDC    C1161600   3.985   5.932   7.227 -0.7176 -0.5867  0.4505
 5601UDC     C161601  18.269   1.269  19.618 -0.3311  0.9052 -0.1767
 5601UDC     C261602  18.302   1.323  19.479 -0.0658 -1.1659  1.1645
 5601UDC     C361603  18.424   1.405  19.481 -0.5692  0.0662 -0.4437
 5601UDC     C461604  18.465   1.489  19.361 -1.4087  0.0726  0.8214
 5601UDC     C561605  18.350   1.587  19.310  0.0646  0.6722  0.5740
 5601UDC     C661606  18.356   1.596  19.158 -0.2001 -0.0919  0.5973
 5601UDC     C761607  18.255   1.698  19.102  0.8944  0.0467 -0.5669
 5601UDC     C861608  18.245   1.727  18.951  0.0161  0.0142  0.2134
 5601UDC     C961609  18.379   1.744  18.870  0.6778 -0.2507  0.5289
 5601UDC    C1061610  18.451   1.874  18.927  1.4334 -0.8807  0.4119
 5601UDC    C1161611  18.592   1.893  18.867  0.4128  0.0738  1.3904
 5602UDC     C161612   9.895  14.578   3.794  0.5143 -0.1945 -0.5684
 5602UDC     C261613   9.877  14.424   3.786 -0.8366 -1.0085  0.2489
 5602UDC     C361614   9.996  14.327   3.784  1.0852 -0.4000 -0.9995
 5602UDC     C461615   9.950  14.182   3.780 -0.0662  0.3854  0.1756
 5602UDC     C561616  10.050  14.069   3.814  0.8495 -0.2014 -0.0132
 5602UDC     C661617  10.020  13.989   3.943 -0.6777  0.0293 -0.1049
 5602UDC     C761618  10.149  13.943   4.009 -0.1978 -0.3589  0.1919
 5602UDC     C861619  10.129  13.833   4.118 -0.6424 -0.0063  0.8870
 5602UDC     C961620  10.253  13.779   4.190 -0.0959  0.2168  0.8635
 5602UDC    C1061621  10.213  13.657   4.276  0.2916 -1.3594 -0.2516
 5602UDC    C1161622  10.149  13.551   4.191  0.5310  0.4954 -1.1899
 5603UDC     C161623  11.906  19.812  18.420 -1.0850  0.0879  0.3993
 5603UDC     C261624  12.026  19.794  18.515 -0.7652 -1.4059 -0.8352
 5603UDC     C361625  12.161  19.779  18.436 -0.0221  1.2699  0.4194
 5603UDC     C461626  12.176  19.642  18.354 -0.9504 -0.1536  0.2369
 5603UDC     C561627  12.284  19.654  18.239  0.9193  0.6061  0.1680
 5603UDC     C661628  12.274  19.549  18.126  0.0058  1.1015 -0.6704
 5603UDC     C761629  12.173  19.428  18.148  0.4278 -0.7078  0.6663
 5603UDC     C861630  12.187  19.322  18.041 -0.7685  0.7493  0.9731
 5603UDC     C961631  12.157  19.187  18.106  0.7318  0.4717  0.6738
 5603UDC    C1061632  12.251  19.173  18.221  0.1170 -0.1766 -0.4293
 5603UDC    C1161633  12.242  19.054  18.320 -0.0605  0.0558 -0.4361
 5604UDC     C161634   1.877   4.303  14.611 -1.3352  0.7742  0.1574
 5604UDC     C261635   1.859   4.199  14.496 -0.2049  1.1225  0.3233
 5604UDC     C361636   1.740   4.215  14.402  0.2578 -0.3945  0.4176
 5604UDC     C461637   1.761   4.179  14.251 -0.8103 -0.6768  0.7411
 5604UDC     C561638   1.818   4.307  14.180  0.1132  0.2547  0.2287
 5604UDC     C661639   1.816   4.300  14.030  0.5584 -0.1551 -0.6559
 5604UDC     C761640   1.959   4.321  13.981 -0.5920 -0.4023  1.1725
 5604UDC     C861641   1.999   4.475  13.981  0.3694  0.4728  0.3056
 5604UDC     C961642   2.146   4.532  13.964  1.3773  0.5255  0.2831
 5604UDC    C1061643   2.157   4.679  13.996 -0.2769  0.2989  0.3039
 5604UDC    C1161644   2.047   4.714  14.102 -0.5368 -0.1702 -0.3172
 5605UDC     C161645  10.670   4.877  10.625 -0.3634 -1.2548  0.2547
 5605UDC     C261646  10.801   4.943  10.683  0.2004 -1.0382  1.4508
 5605UDC     C361647  10.772   5.080  10.744  0.6410 -0.6442 -0.2578
 5605UDC     C461648  10.898   5.122  10.813  0.3222  0.8295 -0.0247
 5605UDC     C561649  10.963   5.017  10.910 -0.0589 -0.9635 -0.2621
 5605UDC     C661650  11.093   5.065  10.980 -0.6389 -0.2659  0.1491
 5605UDC     C761651  11.138   4.953  11.063  0.8955  0.2874  0.1532
 5605UDC     C861652  11.266   4.986  11.147  1.1199 -0.0980 -0.8182
 5605UDC     C961653  11.229   5.064  11.276  0.2330 -0.7040 -0.1409
 5605UDC    C1061654  11.299   5.026  11.412  0.2592 -0.1268  0.7310
 5605UDC    C1161655  11.275   5.129  11.531  0.8010  0.9953  0.2829
 5606UDC     C161656  13.362  13.872  14.164  0.0759 -0.4419 -0.3557
 5606UDC     C261657  13.272  13.755  14.217  0.2342 -0.5629 -0.5488
 5606UDC     C361658  13.343  13.621  14.236 -1.0954  0.5780  0.3973
 5606UDC     C461659  13.405  13.547  14.110  0.4683  0.2129 -0.0882
 5606UDC     C561660  13.497  13.417  14.126  0.2967  0.6467 -0.0132
 5606UDC     C661661  13.528  13.342  13.996 -0.1067  1.2521  1.7966
 5606UDC     C761662  13.568  13.191  14.019 -0.0838 -0.1248  0.3553
 5606UDC     C861663  13.689  13.163  14.104 -0.0691  0.3293  0.4113
 5606UDC     C961664  13.701  13.010  14.127  1.1512 -0.6665  0.6062
 5606UDC    C1061665  13.813  12.947  14.203 -0.3625  1.6454 -0.4299
 5606UDC    C1161666  13.805  12.794  14.221 -0.2523 -0.2073  0.0599
 5607UDC     C161667  16.084   6.130  18.314  0.2938 -0.1053 -0.1179
 5607UDC     C261668  16.125   5.993  18.248 -0.3727  0.4126 -0.7682
 5607UDC     C361669  16.232   6.010  18.140  0.3672  0.8139 -0.1843
 5607UDC     C461670  16.177   6.091  18.019 -0.6515 -0.1700  0.2093
 5607UDC     C561671  16.268   6.109  17.904 -0.8046 -0.5534 -0.8193
 5607UDC     C661672  16.354   6.229  17.879  0.5310  0.1521  0.3150
 5607UDC     C761673  16.426   6.225  17.748 -0.3279  0.0343  0.6524
 5607UDC     C861674  16.504   6.359  17.716  0.3339  0.8753  0.6599
 5607UDC     C961675  16.558   6.377  17.581 -0.5769 -0.1734  0.2516
 5607UDC    C1061676  16.611   6.247  17.512  0.2321 -0.2055  0.6676
 5607UDC    C1161677  16.745   6.198  17.570 -0.2553 -0.6945 -0.2844
 5608UDC     C161678   1.965   3.833  15.055 -0.2105  1.3656 -0.2775
 5608UDC     C261679   1.991   3.969  14.989  0.7504 -0.3084 -0.5699
 5608UDC     C361680   1.900   4.079  15.045  0.7874  0.7084  0.6055
 5608UDC     C461681   1.759   4.019  15.060  0.1386  0.3224  0.6481
 5608UDC     C561682   1.677   4.080  15.174  0.1150  0.6872 -0.0026
 5608UDC     C661683   1.723   4.058  15.321 -0.0837  0.0760  0.8430
 5608UDC     C761684   1.671   4.153  15.433 -0.3716  0.0704 -1.1243
 5608UDC     C861685   1.768   4.270  15.457  0.1932  0.2559  0.5202
 5608UDC     C961686   1.692   4.375  15.535 -0.6994 -0.3765 -0.3507
 5608UDC    C1061687   1.789   4.439  15.632 -0.6418 -1.1460 -0.2450
 5608UDC    C1161688   1.870   4.560  15.571  0.4398  0.0039  0.2092
 5609UDC     C161689  14.570   2.615   9.061  0.2741 -0.1964  0.4179
 5609UDC     C261690  14.625   2.765   9.047 -0.9621 -1.1385 -0.2561
 5609UDC     C361691  14.748   2.769   9.136  0.2448 -0.2223 -0.2104
 5609UDC     C461692  14.884   2.821   9.070  0.1309  0.5512  0.4243
 5609UDC     C561693  14.934   2.715   8.963  0.7524 -0.5738 -0.0659
 5609UDC     C661694  14.995   2.585   9.022 -0.3320 -0.0979  0.6263
 5609UDC     C761695  15.043   2.472   8.920 -0.0503 -0.3188  0.4244
 5609UDC     C861696  15.182   2.493   8.866 -0.0778  0.8442  0.7183
 5609UDC     C961697  15.198   2.507   8.711  0.0508  0.2761  0.6490
 5609UDC    C1061698  15.169   2.381   8.623  0.5751  0.1879 -0.1665
 5609UDC    C1161699  15.122   2.414   8.476 -1.1346 -1.1334 -0.2791
 5610UDC     C161700   9.605   5.835  15.910 -0.3778 -0.5760 -0.0445
 5610UDC     C261701   9.604   5.834  16.070  0.3749  0.1029 -0.0434
 5610UDC     C361702   9.752   5.863  16.105  0.6438  0.5292 -0.6669
 5610UDC     C461703   9.794   5.987  16.028  0.1526 -0.4911  0.3167
 5610UDC     C561704   9.728   6.107  16.102  0.0793 -0.5459  1.0730
 5610UDC     C661705   9.782   6.232  16.030 -1.5553  0.6371 -0.3319
 5610UDC     C761706   9.782   6.245  15.877 -0.3771  1.0939 -0.1030
 5610UDC     C861707   9.882   6.333  15.816  0.2240 -0.7451  0.9689
 5610UDC     C961708   9.926   6.301  15.674 -0.5842  0.0494 -0.8769
 5610UDC    C1061709  10.056   6.374  15.625  0.8855  0.1893 -0.6023
 5610UDC    C1161710  10.040   6.500  15.542 -0.1401  1.5948 -0.8709
 5611UDC     C161711   9.135  15.654  13.268 -0.9695  0.2908  0.6694
 5611UDC     C261712   9.071  15.537  13.348  0.7047 -0.6310  0.3927
 5611UDC     C361713   9.119  15.401  13.296 -0.9466 -0.6277  0.4035
 5611UDC     C461714   9.040  15.289  13.362  0.7084  1.1215 -1.8784
 5611UDC     C561715   9.033  15.165  13.270 -0.8838 -0.9075  0.4125
 5611UDC     C661716   8.956  15.046  13.324 -0.3248  0.7668 -0.1806
 5611UDC     C761717   8.877  14.985  13.202 -0.6694  0.3187  0.5819
 5611UDC     C861718   8.847  15.094  13.089  0.2236 -0.0571 -1.1055
 5611UDC     C961719   8.747  15.035  12.990  0.5290 -0.4818 -0.3022
 5611UDC    C1061720   8.610  15.002  13.055  0.0249 -0.2473 -0.3643
 5611UDC    C1161721   8.486  15.100  13.037 -0.2141  0.2971  0.4820
 5612UDC     C161722  11.157  11.778  12.200 -0.0259 -0.0049 -0.6845
 5612UDC     C261723  11.016  11.743  12.248  0.7701 -0.6217  0.1013
 5612UDC     C361724  10.954  11.843  12.353 -0.3471 -0.3275 -0.7783
 5612UDC     C461725  10.919  11.970  12.272 -0.7622 -0.7168  0.0915
 5612UDC     C561726  10.877  12.073  12.377  0.4607 -0.2363 -0.0128
 5612UDC     C661727  10.732  12.060  12.431 -0.1916 -0.6896  0.4559
 5612UDC     C761728  10.707  12.198  12.501 -0.9762 -0.0372 -0.4581
 5612UDC     C861729  10.568  12.241  12.547 -0.2943 -0.2376 -0.1361
 5612UDC     C961730  10.605  12.359  12.638  0.3387 -0.8407  0.2124
 5612UDC    C1061731  10.594  12.495  12.561  0.1393  0.3807 -1.9836
 5612UDC    C1161732  10.637  12.600  12.660 -0.0595  0.3616  0.0536
 5613UDC     C161733   2.518   1.717   7.186 -0.4060  0.4770 -0.3595
 5613UDC     C261734   2.397   1.621   7.207  0.0249  0.6821  0.5623
 5613UDC     C361735   2.316   1.580   7.081 -0.7794  0.5976 -0.8917
 5613UDC     C461736   2.255   1.696   7.002  0.3777 -0.0330  0.5490
 5613UDC     C561737   2.143   1.640   6.915 -1.8430  0.3186  0.4713
 5613UDC     C661738   2.017   1.653   7.008 -0.3457  1.1400  0.0881
 5613UDC     C761739   1.935   1.786   6.995  0.0704 -0.3382  0.1982
 5613UDC     C861740   1.848   1.808   7.114 -0.3828  0.1499 -0.4697
 5613UDC     C961741   1.795   1.955   7.130 -0.7379  1.1998 -0.0310
 5613UDC    C1061742   1.882   2.072   7.141  1.8099 -0.4913  0.1537
 5613UDC    C1161743   1.802   2.193   7.092  0.7807  0.0823  0.3900
 5614UDC     C161744  19.012   1.835   2.769  0.6254 -0.1285  0.0886
 5614UDC     C261745  19.134   1.796   2.859  1.1111 -0.5181  1.3365
 5614UDC     C361746  19.121   1.675   2.952 -0.0795  0.3385  0.4178
 5614UDC     C461747  19.255   1.656   3.020  0.4021  0.7981 -0.3108
 5614UDC     C561748  19.240   1.552   3.129 -0.2139 -0.2437 -0.3510
 5614UDC     C661749  19.368   1.524   3.205 -0.0576  0.3422 -0.4194
 5614UDC     C761750  19.349   1.382   3.268  0.2838 -0.2495  0.2179
 5614UDC     C861751  19.357   1.262   3.168 -1.3527 -0.6391  0.1460
 5614UDC     C961752  19.482   1.271   3.076  0.4671  0.5299 -0.9337
 5614UDC    C1061753  19.466   1.183   2.952 -0.1098  1.0096 -0.1779
 5614UDC    C1161754  19.431   1.044   2.995 -0.3027 -1.1057 -0.2063
 5615UDC     C161755  19.667   0.126   4.496 -0.0125 -0.1714  0.3287
 5615UDC     C261756  19.697   0.121   4.648  0.5498 -0.2938  1.0005
 5615UDC     C361757  19.650  -0.000   4.722 -0.0612 -0.2493 -0.9589
 5615UDC     C461758  19.678  -0.013   4.878 -0.5943 -1.3392  0.3861
 5615UDC     C561759  19.663  -0.151   4.932  0.5084  0.0907 -0.7974
 5615UDC     C661760  19.704  -0.165   5.079 -0.5644  0.0180 -0.1408
 5615UDC     C761761  19.861  -0.163   5.087  0.6752 -0.4738 -0.2557
 5615UDC     C861762  19.937  -0.234   5.198  0.3505  0.8946  0.3828
 5615UDC     C961763  19.965  -0.130   5.312  0.2856 -0.2740  0.2272
 5615UDC    C1061764  20.116  -0.101   5.348 -0.7723 -0.8796  0.2448
 5615UDC    C1161765  20.177  -0.222   5.419  0.8450 -0.4715 -0.7691
 5616UDC     C161766   9.547   8.483  14.547  0.3257  0.6151 -0.9384
 5616UDC     C261767   9.541   8.627  14.571  0.3297  0.0811 -0.0503
 5616UDC     C361768   9.427   8.705  14.513 -0.2458 -0.4794 -0.1052
 5616UDC     C461769   9.426   8.865  14.533  0.4415  0.2895 -1.0060
 5616UDC     C561770   9.324   8.936  14.447  0.3046 -0.4143 -0.3837
 5616UDC     C661771   9.359   8.949  14.300  0.2230 -0.5469  1.3776
 5616UDC     C761772   9.496   8.990  14.250 -0.4118  0.1024  0.8235
 5616UDC     C861773   9.490   9.004  14.095 -0.1032 -0.0718  0.9789
 5616UDC     C961774   9.532   8.881  14.017 -0.7311 -0.5933  1.0543
 5616UDC    C1061775   9.614   8.916  13.894  0.4214  0.0648 -0.2495
 5616UDC    C1161776   9.719   8.813  13.857  0.6816 -0.3916  0.1806
 5617UDC     C161777  17.957   9.282   4.473 -0.4873  0.2337 -0.6973
 5617UDC     C261778  18.026   9.204   4.587 -0.2452  0.8489  0.5074
 5617UDC     C361779  17.984   9.053   4.616 -0.2960  1.1154  0.0900
 5617UDC     C461780  18.051   9.006   4.753  1.3974 -0.0374  0.3165
 5617UDC     C561781  18.013   8.868   4.809  0.0261  0.7393  0.5694
 5617UDC     C661782  18.050   8.730   4.758 -0.6871  0.8120 -1.5070
 5617UDC     C761783  17.982   8.624   4.849  0.1623 -0.7823  0.2891
 5617UDC     C861784  17.844   8.648   4.908  0.0895  0.6420 -1.0254
 5617UDC     C961785  17.800   8.542   5.018 -0.7994 -0.2876 -0.2394
 5617UDC    C1061786  17.648   8.532   5.047 -0.1754 -0.1781  0.2829
 5617UDC    C1161787  17.615   8.428   5.153 -0.4458 -0.1315  0.3046
 5618UDC     C161788   0.727  19.671   8.794  1.5601  0.6694  0.5648
 5618UDC     C261789   0.855  19.587   8.787  0.6181 -0.0149 -0.5889
 5618UDC     C361790   0.905  19.535   8.923  0.1473 -0.2560  0.2730
 5618UDC     C461791   0.946  19.633   9.031 -0.5524 -0.5306 -0.5087
 5618UDC     C561792   1.103  19.657   9.054 -0.4189  1.1423  0.1610
 5618UDC     C661793   1.133  19.738   9.184 -0.9006  0.3262  0.4304
 5618UDC     C761794   1.277  19.775   9.180  0.5173 -1.1916 -0.4744
 5618UDC     C861795   1.333  19.838   9.310  0.2642  0.5489  0.5569
 5618UDC     C961796   1.420  19.760   9.404 -0.2247 -0.1858  0.3988
 5618UDC    C1061797   1.460  19.839   9.529  0.3531 -0.2136 -1.1499
 5618UDC    C1161798   1.564  19.764   9.621  0.6402  0.7707  0.7839
 5619UDC     C161799  19.304  13.427  12.252  0.7225 -0.1088 -0.5793
 5619UDC     C261800  19.219  13.552  12.259 -0.8189 -0.2221 -0.3392
 5619UDC     C361801  19.091  13.544  12.342  1.6374 -0.8463 -0.3174
 5619UDC     C461802  18.973  13.638  12.303  0.2544 -0.6110 -0.5641
 5619UDC     C561803  18.875  13.590  12.200  0.4829 -0.2869 -0.5270
 5619UDC     C661804  18.745  13.522  12.260  0.5123 -0.0963  0.2059
 5619UDC     C761805  18.639  13.624  12.319 -0.6486  0.4079 -0.9414
 5619UDC     C861806  18.599  13.736  12.219  0.4742  0.0243 -0.6388
 5619UDC     C961807  18.523  13.708  12.092  0.7286  0.0499  0.3436
 5619UDC    C1061808  18.429  13.816  12.057 -0.2027 -0.1880  0.9584
 5619UDC    C1161809  18.482  13.956  12.036  0.6796 -0.9095  1.0381
 5620UDC     C161810   8.117   4.566   1.729 -0.6488  0.0863  0.2932
 5620UDC     C261811   8.174   4.693   1.655 -0.4638  0.1646  0.4183
 5620UDC     C361812   8.266   4.641   1.537  0.8012  0.1813 -0.3641
 5620UDC     C461813   8.378   4.740   1.503 -0.7556  0.3993 -0.1983
 5620UDC     C561814   8.324   4.868   1.436  0.7557  0.0933 -0.1901
 5620UDC     C661815   8.439   4.965   1.404  0.1189  0.6633 -0.6771
 5620UDC     C761816   8.490   4.947   1.252 -0.6989  0.2736 -0.3907
 5620UDC     C861817   8.608   5.040   1.192  0.6914  0.9003 -0.7419
 5620UDC     C961818   8.667   5.147   1.285  0.3604  0.1936  0.5251
 5620UDC    C1061819   8.811   5.165   1.244 -0.5485 -0.5939  0.2210
 5620UDC    C1161820   8.822   5.205   1.091 -0.0948  1.0331 -0.5338
 5621UDC     C161821   0.855   9.731   1.243 -1.1315  0.3310  0.2729
 5621UDC     C261822   0.745   9.629   1.202  0.4577 -0.2491 -0.1125
 5621UDC     C361823   0.608   9.690   1.209  0.0573 -0.0829 -0.9429
 5621UDC     C461824   0.508   9.577   1.175 -0.3889 -0.0528 -0.4661
 5621UDC     C561825   0.434   9.503   1.274 -0.3971 -0.6181 -0.0517
 5621UDC     C661826   0.347   9.396   1.210  0.0590  1.1700  0.0088
 5621UDC     C761827   0.312   9.272   1.286 -0.2355 -0.9100 -0.4777
 5621UDC     C861828   0.256   9.295   1.428 -0.5536 -0.1233 -0.4658
 5621UDC     C961829   0.206   9.177   1.512 -0.4622  0.1358 -0.4520
 5621UDC    C1061830   0.141   9.225   1.644  0.1607 -0.4654  0.0647
 5621UDC    C1161831   0.077   9.364   1.647 -0.0179 -0.1287  0.5206
 5622UDC     C161832  10.944  19.642  18.149 -0.0213 -0.2815 -0.6070
 5622UDC     C261833  10.976  19.501  18.135  0.3292  0.0806  0.4910
 5622UDC     C361834  10.855  19.432  18.081 -0.7571  0.6847 -0.2498
 5622UDC     C461835  10.905  19.312  18.005 -0.0697  0.7512  0.5684
 5622UDC     C561836  10.984  19.369  17.879  0.2569 -0.0945  0.4856
 5622UDC     C661837  10.892  19.442  17.772  0.3695  0.0063  0.3565
 5622UDC     C761838  10.983  19.473  17.656 -0.8284  0.2537  0.5231
 5622UDC     C861839  11.121  19.536  17.669 -0.3259 -0.1089  0.3621
 5622UDC     C961840  11.105  19.686  17.725  0.2365 -0.5965 -0.0194
 5622UDC    C1061841  11.215  19.769  17.662 -1.6657  0.1037  0.0337
 5622UDC    C1161842  11.244  19.905  17.720  0.3051  0.0954 -0.1362
 5623UDC     C161843  16.845   4.199  10.461 -0.3341 -0.2328 -0.9327
 5623UDC     C261844  16.888   4.338  10.423 -0.8196 -0.6748 -0.1986
 5623UDC     C361845  16.787   4.416  10.337 -0.2307 -0.1334 -1.1144
 5623UDC     C461846  16.630   4.390  10.364  0.1329 -0.0641 -0.5789
 5623UDC     C561847  16.542   4.510  10.324  0.5324 -0.7814 -0.0198
 5623UDC     C661848  16.615   4.647  10.310 -0.0939 -0.0502  0.7056
 5623UDC     C761849  16.630   4.727  10.447  0.1634 -0.2380 -0.4046
 5623UDC     C861850  16.742   4.825  10.430  0.4324 -0.8117  0.5796
 5623UDC     C961851  16.732   4.944  10.523 -0.0735 -0.9825 -0.9154
 5623UDC    C1061852  16.584   4.996  10.515 -0.5600  0.7020  0.3652
 5623UDC    C1161853  16.550   5.127  10.590  0.3619  0.0169 -0.4681
 5624UDC     C161854  15.236   6.365  16.929  0.2647 -0.2136 -0.2175
 5624UDC     C261855  15.348   6.422  16.835 -0.0749  0.4182 -1.1511
 5624UDC     C361856  15.401   6.322  16.726  0.2093 -0.0305  0.7803
 5624UDC     C461857  15.293   6.267  16.631  0.2836  0.4128  0.0784
 5624UDC     C561858  15.225   6.377  16.547  0.0718 -0.9262 -0.0291
 5624UDC     C661859  15.075   6.353  16.560  0.2881  0.3120 -0.0942
 5624UDC     C761860  14.994   6.430  16.460 -0.1582  0.9410  0.3231
 5624UDC     C861861  14.974   6.383  16.316  0.1659  0.6319  0.5025
 5624UDC     C961862  14.920   6.236  16.315 -0.1385  0.2083  0.3220
 5624UDC    C1061863  14.797   6.207  16.397 -0.2008  1.1493 -0.0333
 5624UDC    C1161864  14.780   6.053  16.415  0.6025 -0.4711  0.7696
 5625UDC     C161865  13.892   5.426  15.461 -0.3499 -0.2095 -0.3581
 5625UDC     C261866  13.829   5.543  15.543 -0.0407  0.4833  0.3293
 5625UDC     C361867  13.894   5.677  15.515 -0.4591 -0.7168  0.3057
 5625UDC     C461868  13.881   5.759  15.642  0.6350 -0.8315  0.3452
 5625UDC     C561869  13.987   5.729  15.747 -1.3215  0.0696 -0.7385
 5625UDC     C661870  14.057   5.839  15.831  0.8412  0.5989 -0.1358
 5625UDC     C761871  14.092   5.961  15.740 -0.0009 -0.7720  0.1078
 5625UDC     C861872  14.237   5.960  15.693  0.8632  0.2529 -1.8425
 5625UDC     C961873  14.292   6.094  15.634  0.3252  0.2477  0.7878
 5625UDC    C1061874  14.260   6.143  15.488 -0.2411 -0.3970  0.0282
 5625UDC    C1161875  14.331   6.275  15.448  0.7594  0.5367 -0.6742
 5626UDC     C161876  15.117   2.664  11.591  0.8315  0.5621  0.4368
 5626UDC     C261877  15.232   2.675  11.694  0.4963 -0.3670  0.0703
 5626UDC     C361878  15.287   2.820  11.696 -0.3265  0.1997  0.3236
 5626UDC     C461879  15.428   2.823  11.754 -0.6034 -1.4774 -0.1582
 5626UDC     C561880  15.445   2.749  11.891 -1.1864 -0.2755  0.0259
 5626UDC     C661881  15.402   2.835  12.017  0.0648  1.0466 -0.4186
 5626UDC     C761882  15.475   2.964  12.050 -0.3161 -0.1100  0.7439
 5626UDC     C861883  15.624   2.971  12.088  0.1679  0.2758  0.7231
 5626UDC     C961884  15.645   2.928  12.230  0.7111 -0.3498  0.7716
 5626UDC    C1061885  15.769   3.001  12.297 -0.8109 -0.7419  0.4536
 5626UDC    C1161886  15.838   2.933  12.412  0.0138  0.5245 -0.2174
 5627UDC     C161887   1.036  13.360  18.484 -1.4461 -0.8158 -0.3706
 5627UDC     C261888   1.066  13.510  18.523  0.2712  0.5865 -0.1959
 5627UDC     C361889   0.964  13.591  18.604  0.7454 -0.1355  0.3373
 5627UDC     C461890   1.035  13.638  18.738  0.0773  0.2065 -0.0402
 5627UDC     C561891   0.940  13.672  18.857 -0.3395  0.7750  0.4079
 5627UDC     C661892   0.833  13.784  18.836  0.2333  0.4114  0.2942
 5627UDC     C761893   0.692  13.723  18.845  1.0384  0.8936  0.8173
 5627UDC     C861894   0.636  13.648  18.723  0.7799 -0.1732 -0.2219
 5627UDC     C961895   0.597  13.720  18.594 -0.0896 -0.9509 -0.0002
 5627UDC    C1061896   0.472  13.677  18.533 -0.1358 -0.3712 -0.3184
 5627UDC    C1161897   0.500  13.553  18.444 -0.2679 -0.6363 -0.4242
 5628UDC     C161898   1.337  19.880  10.046  1.0340 -0.2203  0.1696
 5628UDC     C261899   1.302  19.906  10.198  0.1954  0.4393  0.9610
 5628UDC     C361900   1.396  20.002  10.271 -0.3044  0.0928  1.4730
 5628UDC     C461901   1.387  19.960  10.415  0.6282  0.4835 -0.2650
 5628UDC     C561902   1.496  20.040  10.490  0.3243 -0.2827 -0.1781
 5628UDC     C661903   1.477  20.198  10.500  0.2157  1.7736 -0.1309
 5628UDC     C761904   1.331  20.206  10.546 -0.6160  0.5397 -0.6747
 5628UDC     C861905   1.271  20.346  10.541 -1.0037 -0.5640 -0.6711
 5628UDC     C961906   1.127  20.356  10.592 -0.0677 -0.8512 -0.5593
 5628UDC    C1061907   1.091  20.505  10.620 -1.2655 -0.9186  0.1722
 5628UDC    C1161908   1.101  20.606  10.504 -0.5533  0.5154  0.2684
 5629UDC     C161909  11.467  15.357  12.342 -0.0028 -0.4602 -0.8778
 5629UDC     C261910  11.340  15.314  12.418 -0.0579  0.4908 -1.3098
 5629UDC     C361911  11.204  15.384  12.393  0.3575  0.6418 -0.3764
 5629UDC     C461912  11.180  15.396  12.246  0.4355  0.8684  0.1196
 5629UDC     C561913  11.082  15.499  12.196 -0.2782  0.8711 -1.3568
 5629UDC     C661914  11.100  15.621  12.274  0.0166  0.3506 -0.7751
 5629UDC     C761915  11.041  15.743  12.198  0.4820 -0.3742 -0.3016
 5629UDC     C861916  10.931  15.831  12.263  0.2578  0.8101  0.6186
 5629UDC     C961917  10.792  15.764  12.269  0.3275 -0.0082 -0.8186
 5629UDC    C1061918  10.671  15.851  12.302 -0.7313  0.2366 -1.6385
 5629UDC    C1161919  10.583  15.779  12.406  0.9700 -0.0277  0.6148
 5630UDC     C161920  13.319  11.893  19.298 -0.3302  0.2516  1.3240
 5630UDC     C261921  13.223  11.982  19.374  0.5143 -0.0432 -0.3976
 5630UDC     C361922  13.113  11.917  19.454 -1.0574  0.3809  0.1853
 5630UDC     C461923  13.072  12.018  19.564  0.0962 -1.5491  0.4165
 5630UDC     C561924  12.950  12.109  19.535  0.0380 -0.5809  0.1286
 5630UDC     C661925  12.972  12.256  19.566  0.2834 -0.1309  0.8247
 5630UDC     C761926  12.887  12.359  19.493 -0.1295  0.5649  0.3232
 5630UDC     C861927  12.948  12.490  19.540  0.3429  2.4351  0.9166
 5630UDC     C961928  12.877  12.621  19.509  0.0950 -1.6778  0.4175
 5630UDC    C1061929  12.779  12.666  19.619  1.0686 -0.2171  0.2680
 5630UDC    C1161930  12.726  12.804  19.579 -0.2806 -0.0835  0.3425
 5631UDC     C161931  18.956   3.283   3.174 -1.2559 -1.3454  0.1391
 5631UDC     C261932  18.928   3.425   3.212  2.5650  0.1761 -0.6936
 5631UDC     C361933  18.968   3.428   3.356 -0.2775 -1.0932  0.7137
 5631UDC     C461934  18.852   3.447   3.460  0.4078  0.6135  0.0248
 5631UDC     C561935  18.747   3.559   3.427 -0.5118  0.0701  0.8935
 5631UDC     C661936  18.814   3.690   3.455  0.4693  0.5393  0.2069
 5631UDC     C761937  18.706   3.809   3.475 -0.9865 -0.9626  0.7802
 5631UDC     C861938  18.632   3.846   3.343  0.1215 -0.2169 -0.6515
 5631UDC     C961939  18.491   3.891   3.359  0.1604  0.4002 -0.5088
 5631UDC    C1061940  18.387   3.820   3.268 -0.4253 -0.0364  0.3180
 5631UDC    C1161941  18.426   3.799   3.120  0.1721  0.6412  0.6755
 5632UDC     C161942  10.869  14.460  15.332  1.0424  0.8493 -1.3024
 5632UDC     C261943  10.942  14.500  15.198 -0.4044  0.2592 -0.0899
 5632UDC     C361944  11.028  14.611  15.253 -0.3238 -0.1092 -0.3294
 5632UDC     C461945  10.991  14.751  15.200 -0.1111  0.2335 -0.4655
 5632UDC     C561946  11.033  14.784  15.063 -0.3930 -1.0283 -0.5400
 5632UDC     C661947  10.994  14.923  15.006  0.1005 -0.2134 -0.7585
 5632UDC     C761948  11.059  14.942  14.870  0.4152 -0.0284  0.3216
 5632UDC     C861949  11.021  15.069  14.783  0.5089 -0.3241  0.1114
 5632UDC     C961950  10.895  15.055  14.704  0.0911  0.2789  1.1629
 5632UDC    C1061951  10.855  15.177  14.620 -1.0681  0.5101  0.0533
 5632UDC    C1161952  10.712  15.165  14.561  1.0995  0.8984 -0.4723
 5633UDC     C161953   8.658   1.208  13.250 -0.6520  0.3658  0.3761
 5633UDC     C261954   8.796   1.255  13.285  0.2414 -0.6896 -0.2051
 5633UDC     C361955   8.814   1.405  13.307 -0.3507 -0.7936  0.4197
 5633UDC     C461956   8.960   1.451  13.352  0.0725 -0.3029 -0.0615
 5633UDC     C561957   8.967   1.603  13.314 -0.4914  0.8374  0.9145
 5633UDC     C661958   9.088   1.645  13.232 -0.7802 -0.8864  0.0889
 5633UDC     C761959   9.089   1.793  13.174  0.6309  0.1171 -0.7139
 5633UDC     C861960   9.222   1.835  13.111  1.1147  0.1182  0.1609
 5633UDC     C961961   9.209   1.964  13.034 -0.7126 -0.6103  0.7918
 5633UDC    C1061962   9.114   2.056  13.114  0.7162 -0.2811 -0.2435
 5633UDC    C1161963   9.095   2.198  13.061  0.7334 -0.5043 -0.6195
 5634UDC     C161964   2.914  10.659  11.490 -0.4547 -0.2784  0.5102
 5634UDC     C261965   2.997  10.721  11.380 -0.6534  1.0137 -0.1875
 5634UDC     C361966   3.120  10.785  11.439 -0.7130 -0.0461 -1.4229
 5634UDC     C461967   3.164  10.907  11.358 -1.6544 -0.4090  0.6828
 5634UDC     C561968   3.060  11.022  11.382  0.9682 -0.5947  0.3131
 5634UDC     C661969   3.066  11.107  11.252  0.0375 -1.1670 -0.0933
 5634UDC     C761970   2.986  11.241  11.238  0.2845 -0.4506  0.1865
 5634UDC     C861971   2.879  11.256  11.342  0.0268 -0.1546  0.1660
 5634UDC     C961972   2.777  11.372  11.308  0.5133 -0.7788  0.8839
 5634UDC    C1061973   2.711  11.337  11.170 -0.1566 -0.9890 -1.2659
 5634UDC    C1161974   2.624  11.212  11.167 -0.1139  0.6932 -1.2280
 5635UDC     C161975  17.326   9.250  16.399  0.6148  0.0517  0.0699
 5635UDC     C261976  17.236   9.128  16.379 -0.4999  0.8033  0.1084
 5635UDC     C361977  17.252   9.042  16.503  0.0179  0.0224  0.1003
 5635UDC     C461978  17.394   8.989  16.483 -0.5792  0.0280 -0.1135
 5635UDC     C561979  17.432   8.894  16.591 -0.8964  0.1439  0.3289
 5635UDC     C661980  17.567   8.833  16.593 -0.5196 -0.2731  0.0756
 5635UDC     C761981  17.615   8.751  16.714  0.5161  0.9415 -0.0580
 5635UDC     C861982  17.688   8.827  16.833  0.2450  0.7977 -0.1043
 5635UDC     C961983  17.755   8.722  16.927  1.2686  1.1535  0.1240
 5635UDC    C1061984  17.832   8.788  17.042  0.1681  0.0789 -0.7405
 5635UDC    C1161985  17.903   8.921  17.022  0.6969 -1.1173  0.3253
 5636UDC     C161986   1.470   6.020  16.698 -0.2600 -0.6627  1.4634
 5636UDC     C261987   1.553   5.890  16.668  1.1552  0.6905  0.8808
 5636UDC     C361988   1.631   5.890  16.531  0.8380  0.1231  0.1567
 5636UDC     C461989   1.556   5.929  16.404 -0.4212  0.7342  0.4229
 5636UDC     C561990   1.614   5.902  16.264 -0.6231  0.4366  0.6011
 5636UDC     C661991   1.575   6.021  16.173 -0.1502  0.1572 -0.0520
 5636UDC     C761992   1.573   6.002  16.020  0.5448  0.0698 -0.9009
 5636UDC     C861993   1.481   6.109  15.961  1.0915  1.1286 -0.6602
 5636UDC     C961994   1.471   6.238  16.046 -0.5591  0.5975 -0.0971
 5636UDC    C1061995   1.337   6.308  16.041  0.7440 -1.2895 -0.8602
 5636UDC    C1161996   1.338   6.454  16.112 -0.0810  0.9402  0.5793
 5637UDC     C161997  17.117   9.577   1.960 -0.7821 -0.0083  0.6142
 5637UDC     C261998  17.049   9.486   2.060  1.0372 -1.0328  0.5207
 5637UDC     C361999  17.091   9.338   2.049 -0.0053  0.6858 -1.2471
 5637UDC     C462000  16.991   9.241   2.121 -0.0757  1.0600 -0.5542
 5637UDC     C562001  17.062   9.106   2.141  0.0309  0.4662 -0.4187
 5637UDC     C662002  16.975   9.005   2.222  0.5356  0.0143  0.5253
 5637UDC     C762003  16.863   8.938   2.145 -0.0152  0.4801 -0.0416
 5637UDC     C862004  16.785   8.834   2.234  0.1744 -0.1305  0.0996
 5637UDC     C962005  16.635   8.798   2.213  0.0836 -0.5642 -0.2105
 5637UDC    C1062006  16.575   8.699   2.307  0.9492  1.3422 -0.2683
 5637UDC    C1162007  16.667   8.606   2.391 -0.3564 -0.7878  0.8190
 5638UDC     C162008   9.778   4.745  10.800 -0.6115 -0.3130  0.1942
 5638UDC     C262009   9.842   4.609  10.759  0.0453 -0.1260  0.1125
 5638UDC     C362010   9.871   4.610  10.610  1.1281  0.3049  0.7488
 5638UDC     C462011   9.955   4.482  10.591 -0.0593  0.2340 -0.1703
 5638UDC     C562012  10.105   4.517  10.577  0.3294  1.2726 -0.1673
 5638UDC     C662013  10.117   4.587  10.437 -0.7212 -0.0774 -0.3595
 5638UDC     C762014  10.223   4.701  10.413  1.2754  0.4396  1.3065
 5638UDC     C862015  10.204   4.747  10.269 -0.1177 -0.5408 -0.0916
 5638UDC     C962016  10.195   4.629  10.171 -0.8894 -0.0960 -0.0506
 5638UDC    C1062017  10.122   4.675  10.036  0.0577  0.5509  0.3495
 5638UDC    C1162018  10.235   4.755   9.972 -0.7083 -0.2488  0.7280
 5639UDC     C162019   3.127   8.291  18.599 -0.7177  0.8353 -0.7801
 5639UDC     C262020   3.274   8.324  18.643 -0.0110  0.1054  0.5950
 5639UDC     C362021   3.287   8.460  18.705 -0.4823  0.0045 -0.0906
 5639UDC     C462022   3.238   8.583  18.625  0.3682 -0.0500 -0.0963
 5639UDC     C562023   3.268   8.722  18.696  0.7654  0.1154  0.1554
 5639UDC     C662024   3.215   8.717  18.840  0.0198 -0.1321  0.1861
 5639UDC     C762025   3.246   8.841  18.929  1.2209 -0.7705 -0.8751
 5639UDC     C862026   3.374   8.856  19.001 -0.2252  0.2665 -0.1854
 5639UDC     C962027   3.366   8.987  19.088 -0.6839 -0.3352  0.6211
 5639UDC    C1062028   3.351   8.978  19.237  1.0264 -1.4232  0.2047
 5639UDC    C1162029   3.438   8.856  19.285  0.0450  0.0316  0.3302
 5640UDC     C162030  11.713   8.654  15.806 -0.6932  0.1104 -0.8419
 5640UDC     C262031  11.777   8.569  15.918 -1.0128  0.6931  0.5314
 5640UDC     C362032  11.673   8.477  15.985 -0.8890  0.8980 -1.0420
 5640UDC     C462033  11.583   8.576  16.059 -0.3006 -0.5185  1.7866
 5640UDC     C562034  11.633   8.642  16.190  0.4579 -0.4386 -0.2457
 5640UDC     C662035  11.522   8.667  16.288  0.6037 -0.6780  0.3607
 5640UDC     C762036  11.575   8.719  16.424  0.6774  0.1004 -0.1491
 5640UDC     C862037  11.666   8.845  16.416 -1.4128 -0.8327 -1.2797
 5640UDC     C962038  11.621   8.962  16.510  0.7115  0.3694  0.1808
 5640UDC    C1062039  11.703   9.086  16.479  1.8441  0.6973 -0.5145
 5640UDC    C1162040  11.770   9.078  16.339  0.2431  0.3576 -1.0647
 5641UDC     C162041  12.140  19.868   5.672 -0.0380 -0.3861  0.7018
 5641UDC     C262042  12.261  19.772   5.690  1.1122  1.3928  1.1827
 5641UDC     C362043  12.389  19.842   5.692 -0.5693  0.6604  0.1863
 5641UDC     C462044  12.403  19.944   5.576 -1.1319 -0.4992 -0.2153
 5641UDC     C562045  12.549  19.993   5.574 -0.4249 -0.4592 -0.4998
 5641UDC     C662046  12.645  19.879   5.539 -0.2903  1.1311  0.2366
 5641UDC     C762047  12.792  19.925   5.521 -1.4563 -0.1772  0.2253
 5641UDC     C862048  12.906  19.820   5.520  0.1699 -0.0402  0.2019
 5641UDC     C962049  12.915  19.788   5.366  0.5867 -1.0781 -0.2854
 5641UDC    C1062050  13.025  19.687   5.333 -0.2217  0.0293  0.3935
 5641UDC    C1162051  13.065  19.656   5.188  0.8290 -0.1689  1.1033
 5642UDC     C162052   2.685  18.312  12.283  0.1254 -0.7301  0.2903
 5642UDC     C262053   2.717  18.452  12.222  0.1381 -1.1634  0.1354
 5642UDC     C362054   2.685  18.580  12.297 -1.4978 -0.3927 -0.3898
 5642UDC     C462055   2.643  18.683  12.193  2.1873  0.1271  0.4657
 5642UDC     C562056   2.740  18.728  12.087 -0.7249 -0.1578 -0.2353
 5642UDC     C662057   2.763  18.643  11.952  1.2748 -0.1773 -0.0824
 5642UDC     C762058   2.848  18.732  11.876 -0.7366 -0.5004 -0.1183
 5642UDC     C862059   2.825  18.723  11.726  0.2485  1.2940 -1.1149
 5642UDC     C962060   2.891  18.844  11.658  0.2454 -0.6920  0.1994
 5642UDC    C1062061   2.842  18.860  11.508  0.0242 -0.3636  0.0100
 5642UDC    C1162062   2.859  18.733  11.431  1.0662  0.5014 -0.5740
 5643UDC     C162063  16.802  17.586  17.923 -0.4655 -0.8713  0.4813
 5643UDC     C262064  16.934  17.639  17.966 -0.1657 -0.0881  0.2872
 5643UDC     C362065  16.946  17.669  18.112 -0.4093 -0.0005 -1.3531
 5643UDC     C462066  17.073  17.741  18.159  0.8469 -0.4909  0.8246
 5643UDC     C562067  17.101  17.729  18.308  1.1223  0.4967 -0.7448
 5643UDC     C662068  16.987  17.771  18.395  0.5631  0.4324  0.8156
 5643UDC     C762069  17.037  17.782  18.538  0.5975 -0.1727  0.7699
 5643UDC     C862070  16.923  17.834  18.622 -0.2367 -1.3596 -0.5621
 5643UDC     C962071  16.910  17.789  18.767  0.2230 -0.0129  0.0723
 5643UDC    C1062072  16.789  17.862  18.827  0.6269  0.4537  0.0262
 5643UDC    C1162073  16.782  18.013  18.827 -0.2022 -0.5937 -0.3892
 5644UDC     C162074   4.214   7.027   4.155  0.6720  0.0481  0.0178
 5644UDC     C262075   4.123   7.103   4.056 -0.1702  0.5770 -0.7821
 5644UDC     C362076   3.984   7.044   4.092 -0.8959  0.9996 -0.1083
 5644UDC     C462077   3.983   6.900   4.032 -0.7462  0.2054 -1.0723
 5644UDC     C562078   3.913   6.903   3.892 -0.8188  0.0800  0.1520
 5644UDC     C662079   3.770   6.934   3.915 -0.6739  0.3421 -0.2971
 5644UDC     C762080   3.695   6.937   3.784 -0.4868 -1.1204 -0.2549
 5644UDC     C862081   3.545   6.961   3.816  0.1146  0.8470 -0.0287
 5644UDC     C962082   3.469   6.842   3.871  1.1602  0.2862 -0.2983
 5644UDC    C1062083   3.355   6.871   3.970 -0.2919  0.1997  1.7035
 5644UDC    C1162084   3.244   6.764   3.974  0.8048 -0.0378  0.5761
 5645UDC     C162085   2.970   5.476  12.874 -1.5461 -0.2943  0.3834
 5645UDC     C262086   3.094   5.408  12.927 -0.1965  0.3323 -0.7397
 5645UDC     C362087   3.224   5.431  12.845 -0.8834  0.8424 -0.3021
 5645UDC     C462088   3.364   5.380  12.903  0.3748  0.0058  0.8134
 5645UDC     C562089   3.473   5.420  12.805  0.5693 -1.3394 -0.7638
 5645UDC     C662090   3.607   5.449  12.885  0.9801 -0.2488 -0.5690
 5645UDC     C762091   3.720   5.488  12.784 -0.2727 -0.2846 -0.4875
 5645UDC     C862092   3.835   5.571  12.839 -0.9440 -0.0644 -0.2415
 5645UDC     C962093   3.942   5.599  12.725  0.5588  0.6050 -0.9237
 5645UDC    C1062094   3.919   5.738  12.660  0.3208  1.2257  1.2138
 5645UDC    C1162095   4.017   5.854  12.694  0.4902  0.7539 -0.7669
 5646UDC     C162096  18.354   5.435   6.409 -0.8600  0.2023  0.1476
 5646UDC     C262097  18.241   5.428   6.303 -0.1671 -0.2360 -0.1952
 5646UDC     C362098  18.187   5.297   6.243 -0.3811 -0.3938  1.4066
 5646UDC     C462099  18.039   5.296   6.192 -0.1242 -0.4550  0.8901
 5646UDC     C562100  17.989   5.150   6.180  0.2892  1.1759  0.3001
 5646UDC     C662101  17.858   5.138   6.098 -0.4048 -0.7161 -0.3694
 5646UDC     C762102  17.810   4.991   6.104  0.6147 -0.3502  1.2604
 5646UDC     C862103  17.773   4.937   6.239  0.0561 -1.2042 -1.2435
 5646UDC     C962104  17.645   5.008   6.282  0.6209 -1.1039  0.3472
 5646UDC    C1062105  17.602   4.992   6.431 -0.0012 -0.2129  0.4996
 5646UDC    C1162106  17.631   4.854   6.493 -0.4813  0.7381  0.9767
 5647UDC     C162107   1.840  14.407  17.817 -0.0439  0.8194 -0.2564
 5647UDC     C262108   1.841  14.263  17.750  0.3357 -0.0484  0.0715
 5647UDC     C362109   1.810  14.256  17.597  0.6669  0.3935  0.4114
 5647UDC     C462110   1.862  14.136  17.515  0.0766  0.7067  0.8425
 5647UDC     C562111   1.993  14.178  17.446 -0.0478 -0.3906  1.0524
 5647UDC     C662112   2.126  14.166  17.535 -0.1619  0.6685 -0.2234
 5647UDC     C762113   2.250  14.224  17.470  0.0929 -0.7729 -0.6620
 5647UDC     C862114   2.278  14.166  17.339  0.7826  0.7908 -0.0224
 5647UDC     C962115   2.362  14.229  17.226  1.2870 -0.4383  1.4419
 5647UDC    C1062116   2.258  14.274  17.113 -0.1601 -0.6209  0.2662
 5647UDC    C1162117   2.284  14.417  17.065 -0.2309  1.0219  0.1535
 5648UDC     C162118   3.998  13.851  19.867 -0.1785  0.2890  0.0476
 5648UDC     C262119   4.116  13.831  19.952  0.3371  1.3546  0.8918
 5648UDC     C362120   4.210  13.709  19.932  0.8771 -0.3804 -0.1189
 5648UDC     C462121   4.280  13.649  20.053  0.9179  0.5145  0.4606
 5648UDC     C562122   4.375  13.531  20.029 -0.2681 -0.7201  0.2047
 5648UDC     C662123   4.420  13.441  20.144  0.2820  0.8779 -0.1804
 5648UDC     C762124   4.516  13.498  20.255  0.3589  0.3710  0.3212
 5648UDC     C862125   4.647  13.565  20.211  0.4946 -1.7835 -0.2691
 5648UDC     C962126   4.728  13.646  20.314 -0.0446 -0.2340 -0.6087
 5648UDC    C1062127   4.653  13.783  20.347 -0.7115  0.6130  0.5115
 5648UDC    C1162128   4.702  13.850  20.475 -0.2188 -0.0876  1.0057
 5649UDC     C162129  14.887  18.137  13.590  0.6278 -1.3546 -0.6162
 5649UDC     C262130  14.900  17.995  13.543 -0.2426  0.7789  0.1078
 5649UDC     C362131  14.855  17.902  13.652  0.1523 -0.7629 -0.8306
 5649UDC     C462132  14.902  17.893  13.794 -0.1894 -0.1894 -0.1407
 5649UDC     C562133  14.881  17.756  13.862 -0.2810  0.4360 -0.6233
 5649UDC     C662134  14.934  17.656  13.764 -0.0680  0.1891 -0.1053
 5649UDC     C762135  14.959  17.518  13.826  0.2601  0.1182  0.4307
 5649UDC     C862136  15.016  17.399  13.748 -0.3999  0.5350 -0.3391
 5649UDC     C962137  14.927  17.363  13.635 -0.9888 -0.9527  0.8802
 5649UDC    C1062138  14.952  17.440  13.502  0.2472 -0.2282 -1.1367
 5649UDC    C1162139  15.059  17.374  13.422 -1.0895  0.8129 -0.9402
 5650UDC     C162140  12.108   5.384  17.197 -0.1262  0.2162 -0.3623
 5650UDC     C262141  12.073   5.531  17.213  0.8178 -0.1266 -0.1386
 5650UDC     C362142  12.037   5.594  17.076  0.3307 -0.0461 -0.4450
 5650UDC     C462143  12.109   5.716  17.014 -0.5231  0.1512  0.5306
 5650UDC     C562144  12.244   5.706  16.950 -0.9010  0.8736 -0.0742
 5650UDC     C662145  12.297   5.821  16.853 -0.3653  0.6074  1.0308
 5650UDC     C762146  12.443   5.828  16.806 -0.2042 -1.5406  0.2673
 5650UDC     C862147  12.475   5.977  16.764  0.4165 -0.0073  0.9404
 5650UDC     C962148  12.600   6.011  16.676  0.3912  0.2433 -0.8351
 5650UDC    C1062149  12.648   6.145  16.717 -0.1957  0.3474 -0.2422
 5650UDC    C1162150  12.570   6.261  16.645  1.1612 -0.4627 -0.3590
 5651UDC     C162151   9.968  12.501  14.430 -0.5905  0.3762 -0.1996
 5651UDC     C262152   9.868  12.395  14.486  0.0099 -1.6719 -0.6858
 5651UDC     C362153   9.931  12.275  14.557  0.4784 -0.3535 -0.6412
 5651UDC     C462154  10.026  12.187  14.476  0.7743 -0.4359  0.1002
 5651UDC     C562155  10.052  12.052  14.559 -0.1116  0.3791  0.4548
 5651UDC     C662156  10.119  12.086  14.699  0.3399  0.7982 -0.4789
 5651UDC     C762157  10.233  11.989  14.727 -0.4116  0.6020 -0.5768
 5651UDC     C862158  10.360  12.024  14.648 -0.1201 -0.0786  0.6513
 5651UDC     C962159  10.484  12.065  14.731  0.6068 -0.4375  1.0505
 5651UDC    C1062160  10.592  11.956  14.753 -0.4955  0.0011 -1.5385
 5651UDC    C1162161  10.532  11.813  14.779 -0.5866 -0.7545  0.6910
 5652UDC     C162162   4.454  15.200  10.834 -0.4744  0.8761  0.2621
 5652UDC     C262163   4.468  15.220  10.989 -0.0280  0.6702  0.1621
 5652UDC     C362164   4.513  15.365  10.981 -0.2749 -0.7112  0.0717
 5652UDC     C462165   4.527  15.444  11.113  0.4346  0.0014 -0.4219
 5652UDC     C562166   4.658  15.449  11.179 -0.2831 -0.6397  0.3482
 5652UDC     C662167   4.782  15.428  11.089  0.8242 -0.3433  0.6436
 5652UDC     C762168   4.885  15.321  11.135 -0.1607 -0.6488 -0.9245
 5652UDC     C862169   4.990  15.316  11.017  0.2446 -0.5249 -0.8359
 5652UDC     C962170   4.962  15.410  10.896 -0.2631 -0.9368 -0.1661
 5652UDC    C1062171   5.078  15.380  10.795 -0.9237 -0.7725 -0.6422
 5652UDC    C1162172   5.083  15.483  10.680  0.2392  0.9124 -0.4841
 5653UDC     C162173  19.037   8.551  15.859 -0.1395  0.2299 -0.5124
 5653UDC     C262174  19.108   8.655  15.956 -0.7296 -0.4047 -0.1646
 5653UDC     C362175  19.237   8.729  15.923 -1.1289  0.3939  0.3490
 5653UDC     C462176  19.316   8.794  16.044  0.2868  0.1675  0.2349
 5653UDC     C562177  19.288   8.697  16.156 -0.0443 -0.0436 -0.8332
 5653UDC     C662178  19.345   8.720  16.299 -0.5888  0.4730 -1.1496
 5653UDC     C762179  19.351   8.592  16.387 -0.0220  0.6599  0.3258
 5653UDC     C862180  19.403   8.617  16.530 -0.1096 -0.3035 -0.1359
 5653UDC     C962181  19.365   8.751  16.596 -0.2933  1.5525  0.2921
 5653UDC    C1062182  19.314   8.724  16.744 -0.7810  0.0538  0.7013
 5653UDC    C1162183  19.415   8.764  16.856 -0.7974  0.8338  0.8636
 5654UDC     C162184   8.742   3.430   4.089  1.3398 -0.8713  0.6993
 5654UDC     C262185   8.870   3.480   4.028 -1.0221 -0.6779  1.1352
 5654UDC     C362186   8.989   3.392   4.071  0.0111 -0.6144 -0.4071
 5654UDC     C462187   9.120   3.403   3.985  0.7575 -0.3753  0.0396
 5654UDC     C562188   9.251   3.337   4.047 -0.6384 -0.5783 -0.2054
 5654UDC     C662189   9.310   3.430   4.158  0.6708  0.8560 -0.1135
 5654UDC     C762190   9.404   3.362   4.261  0.8547 -1.0499 -0.2020
 5654UDC     C862191   9.373   3.219   4.307 -0.7267  0.4429 -0.5021
 5654UDC     C962192   9.437   3.173   4.437 -0.3051 -0.1640 -0.8296
 5654UDC    C1062193   9.432   3.021   4.451  0.1479 -0.8085 -0.9945
 5654UDC    C1162194   9.285   2.986   4.486  0.5195  0.7316  0.5699
 5655UDC     C162195  14.554   9.152   3.239  0.2076 -0.3768  0.3018
 5655UDC     C262196  14.404   9.150   3.217  1.3499  0.1256  0.9055
 5655UDC     C362197  14.347   9.003   3.208 -0.8372  0.6616 -0.2509
 5655UDC     C462198  14.193   8.988   3.176  0.5721 -0.1194  0.2626
 5655UDC     C562199  14.182   8.837   3.128 -0.1165 -0.5874  0.1589
 5655UDC     C662200  14.040   8.810   3.092  0.2329  0.0010 -0.0028
 5655UDC     C762201  14.035   8.679   3.004 -0.0827  0.5590 -0.2122
 5655UDC     C862202  13.913   8.657   2.915  0.6438 -0.2223 -0.8454
 5655UDC     C962203  13.789   8.626   3.003 -0.2776 -0.6037 -0.1604
 5655UDC    C1062204  13.659   8.634   2.913  0.0823  1.0377 -1.0698
 5655UDC    C1162205  13.677   8.546   2.785 -0.3545 -0.6071 -0.9674
 5656UDC     C162206  19.990   6.743   7.801 -0.9843 -0.5423  1.2895
 5656UDC     C262207  20.104   6.821   7.867  0.6244  0.4474 -0.2065
 5656UDC     C362208  20.223   6.724   7.849  0.5250  1.1115 -0.5384
 5656UDC     C462209  20.333   6.774   7.945 -0.8824 -0.2302 -0.5386
 5656UDC     C562210  20.442   6.673   7.982  0.0247  0.8638 -0.9937
 5656UDC     C662211  20.368   6.559   8.061 -0.9802  0.7440 -0.1004
 5656UDC     C762212  20.456   6.444   8.098  0.0182  0.9294 -0.0135
 5656UDC     C862213  20.381   6.316   8.154 -1.0210  0.7036 -0.5226
 5656UDC     C962214  20.453   6.192   8.202 -0.5946 -0.0310 -0.7918
 5656UDC    C1062215  20.362   6.102   8.284 -0.4019 -0.4138 -0.7561
 5656UDC    C1162216  20.445   5.976   8.304  0.1650 -0.1579 -0.0655
 5657UDC     C162217   5.510   2.202  12.632 -0.7880 -0.2289  1.0691
 5657UDC     C262218   5.393   2.303  12.669  0.3811  0.0251 -1.8808
 5657UDC     C362219   5.259   2.281  12.593  0.0489  1.2538 -0.1974
 5657UDC     C462220   5.218   2.413  12.525  0.1127  0.3390  0.4121
 5657UDC     C562221   5.215   2.406  12.378 -0.3703 -0.5271  0.0069
 5657UDC     C662222   5.165   2.271  12.325 -0.5201 -1.0336  0.0666
 5657UDC     C762223   5.227   2.216  12.194  0.5498  0.3079 -0.2479
 5657UDC     C862224   5.205   2.068  12.175  1.0970 -0.6476 -0.1942
 5657UDC     C962225   5.285   1.996  12.063 -0.6057  0.7729 -1.1353
 5657UDC    C1062226   5.284   1.847  12.020  1.0651  0.7119 -0.6087
 5657UDC    C1162227   5.149   1.804  11.974  1.0975 -0.1854  0.2523
 5658UDC     C162228   8.958  12.296  18.350  0.0245 -0.4610 -0.2644
 5658UDC     C262229   8.985  12.174  18.258  0.2122 -1.0887 -0.0386
 5658UDC     C362230   8.912  12.052  18.301  0.4018  1.5405 -0.0660
 5658UDC     C462231   8.976  11.935  18.217  0.7432 -0.0620  0.0002
 5658UDC     C562232   9.111  11.900  18.264 -0.1498  1.0717 -0.9302
 5658UDC     C662233   9.159  11.756  18.239  0.1895  0.3827  0.1382
 5658UDC     C762234   9.303  11.728  18.294  0.1321 -0.4159 -0.5504
 5658UDC     C862235   9.295  11.582  18.328  0.0342  0.4926 -1.0980
 5658UDC     C962236   9.320  11.557  18.480 -0.4752  0.7307 -0.4296
 5658UDC    C1062237   9.354  11.415  18.544 -0.3548 -0.4678 -0.2470
 5658UDC    C1162238   9.261  11.309  18.485  0.2925 -0.0376  0.3806
 5659UDC     C162239  18.645   2.339   4.147 -0.2392 -1.1288  0.4842
 5659UDC     C262240  18.665   2.233   4.032  0.0144 -0.7056 -1.4592
 5659UDC     C362241  18.553   2.127   4.011 -0.3496 -0.1209 -0.0453
 5659UDC     C462242  18.602   1.982   4.010  0.3767 -1.0344 -0.2837
 5659UDC     C562243  18.683   1.923   4.123 -0.0589  0.4970  0.3192
 5659UDC     C662244  18.776   1.832   4.051 -0.0133  0.4664 -0.2489
 5659UDC     C762245  18.718   1.697   4.003  0.0932 -0.2997 -0.7557
 5659UDC     C862246  18.672   1.609   4.122 -1.5062  0.5732  0.2790
 5659UDC     C962247  18.767   1.572   4.237 -0.1853  0.1297  0.7881
 5659UDC    C1062248  18.709   1.557   4.378  0.2259  0.0100  0.2755
 5659UDC    C1162249  18.594   1.660   4.396 -0.3488  0.5094  0.2204
 5660UDC     C162250   6.004  15.216   9.104 -0.4489 -0.3536  0.0695
 5660UDC     C262251   6.112  15.269   9.198 -0.8409 -0.8834  0.6505
 5660UDC     C362252   6.153  15.419   9.216  0.2622  0.3642 -0.4805
 5660UDC     C462253   6.256  15.433   9.333  0.3587  0.7922  0.0056
 5660UDC     C562254   6.312  15.575   9.355  0.7888  0.4508 -0.4682
 5660UDC     C662255   6.459  15.573   9.394 -0.2141  0.1718  0.3052
 5660UDC     C762256   6.511  15.710   9.418 -1.3371  0.3237 -0.5585
 5660UDC     C862257   6.496  15.814   9.310 -0.7809 -0.4465 -0.1372
 5660UDC     C962258   6.539  15.953   9.346  0.4355 -1.4409 -0.2038
 5660UDC    C1062259   6.536  16.069   9.242 -0.2187  0.2013 -0.1510
 5660UDC    C1162260   6.669  16.068   9.164  0.6530  0.1777  0.5848
 5661UDC     C162261   0.111  10.873  15.011  0.3208  0.1410 -0.0929
 5661UDC     C262262   0.139  10.834  14.862 -0.8857  0.2236  0.2110
 5661UDC     C362263   0.200  10.697  14.844  0.1132  0.0357  0.2834
 5661UDC     C462264   0.125  10.562  14.870  0.0703  0.0419  0.3583
 5661UDC     C562265   0.016  10.516  14.772  0.2012 -0.7966  0.2045
 5661UDC     C662266   0.065  10.480  14.634  1.0005  1.4786  0.1693
 5661UDC     C762267   0.145  10.349  14.646  0.0933  0.0914  0.1971
 5661UDC     C862268   0.068  10.248  14.735  1.2286  0.0716  0.5342
 5661UDC     C962269   0.100  10.105  14.697  0.2638 -0.0039 -0.2267
 5661UDC    C1062270   0.106   9.998  14.806  1.3867  0.5169 -0.2291
 5661UDC    C1162271   0.243   9.937  14.822 -0.8979 -1.1078 -0.2301
 5662UDC     C162272  14.682  16.615   8.355  0.5039 -0.3688  0.3255
 5662UDC     C262273  14.527  16.635   8.348  0.1177  0.1610  0.3584
 5662UDC     C362274  14.427  16.515   8.325  0.0617  0.9118 -0.6425
 5662UDC     C462275  14.279  16.553   8.335 -0.0056  0.3106  0.2552
 5662UDC     C562276  14.169  16.446   8.336  0.4390 -0.4680 -0.5639
 5662UDC     C662277  14.112  16.401   8.202 -0.9581 -0.1502 -0.7573
 5662UDC     C762278  13.974  16.335   8.179 -0.1107  0.2982  1.1315
 5662UDC     C862279  13.839  16.401   8.209  0.3711  0.5415  0.3073
 5662UDC     C962280  13.718  16.301   8.216  0.5845 -0.2674 -0.0821
 5662UDC    C1062281  13.583  16.372   8.206 -0.1761  0.2911  0.3196
 5662UDC    C1162282  13.467  16.281   8.246  1.3210  0.3015  0.7461
 5663UDC     C162283   9.029  17.429   7.836 -0.5166  0.0779 -0.9686
 5663UDC     C262284   8.934  17.334   7.919  1.3148 -0.6781  0.9795
 5663UDC     C362285   8.926  17.330   8.071  0.0792 -0.3328 -0.9019
 5663UDC     C462286   8.817  17.248   8.131 -0.5607  0.1085  0.1342
 5663UDC     C562287   8.802  17.316   8.270 -0.9241 -0.2849 -0.4028
 5663UDC     C662288   8.932  17.382   8.335  1.3549  0.3783 -1.4194
 5663UDC     C762289   8.888  17.457   8.466  1.0046  0.9056 -0.9527
 5663UDC     C862290   8.993  17.565   8.484 -0.7168 -0.4205 -0.6314
 5663UDC     C962291   8.959  17.655   8.605 -0.5928 -0.2168 -1.0829
 5663UDC    C1062292   9.036  17.787   8.601  1.0375 -1.0501 -1.5781
 5663UDC    C1162293   8.991  17.856   8.464 -0.0651 -0.2132 -0.4934
 5664UDC     C162294  13.424   9.121   2.490  0.9216  0.1110 -0.6461
 5664UDC     C262295  13.420   9.028   2.371  0.1718 -0.4794 -0.1909
 5664UDC     C362296  13.532   9.087   2.281 -0.7574 -0.1234 -1.0215
 5664UDC     C462297  13.533   9.052   2.131 -1.2814 -0.0422 -0.0843
 5664UDC     C562298  13.660   9.092   2.049  0.3151 -0.1717 -0.4055
 5664UDC     C662299  13.671   9.046   1.908  0.0548  1.0488  0.9187
 5664UDC     C762300  13.796   9.111   1.851  0.7498 -0.2155  0.1730
 5664UDC     C862301  13.780   9.257   1.832  0.3774 -0.4638  1.8588
 5664UDC     C962302  13.890   9.336   1.746 -0.0149 -0.0519  0.3221
 5664UDC    C1062303  13.905   9.279   1.608 -0.2834  0.7052 -1.1076
 5664UDC    C1162304  13.967   9.374   1.507 -0.2851  0.2555 -0.2958
 5665UDC     C162305  12.261  13.286   8.988 -0.4598  0.3573 -0.6074
 5665UDC     C262306  12.253  13.348   8.851  0.9074  0.2818  0.2089
 5665UDC     C362307  12.237  13.231   8.754 -0.8082 -0.4736 -1.0974
 5665UDC     C462308  12.107  13.159   8.798  0.2149 -0.8360 -0.3199
 5665UDC     C562309  11.967  13.192   8.739  0.2675 -0.6451  0.1142
 5665UDC     C662310  11.856  13.097   8.783 -0.4924  0.0985 -0.0934
 5665UDC     C762311  11.749  13.070   8.690  0.6115  0.0875  0.9359
 5665UDC     C862312  11.648  13.186   8.673  0.4705  0.2476 -0.9120
 5665UDC     C962313  11.627  13.243   8.809  0.1225 -1.5626 -0.7521
 5665UDC    C1062314  11.498  13.331   8.821 -0.4804  0.1537 -0.1139
 5665UDC    C1162315  11.376  13.258   8.754  0.0709  0.9850 -0.4104
 5666UDC     C162316  17.119  16.735   0.322  0.7248 -0.2280 -0.4166
 5666UDC     C262317  17.093  16.609   0.239  0.1516 -1.1185 -0.3690
 5666UDC     C362318  17.145  16.648   0.102 -0.6879 -0.2419  0.2481
 5666UDC     C462319  17.296  16.682   0.101 -0.1167  0.5139  0.0868
 5666UDC     C562320  17.363  16.697  -0.034 -0.4807 -0.1417 -0.3083
 5666UDC     C662321  17.508  16.708  -0.021  0.0956  0.4316  0.7321
 5666UDC     C762322  17.599  16.664  -0.136  0.3504 -0.6119 -0.3048
 5666UDC     C862323  17.751  16.669  -0.122 -0.5840  0.4122  0.8273
 5666UDC     C962324  17.842  16.592  -0.229  0.1922 -0.4692 -0.3193
 5666UDC    C1062325  17.839  16.435  -0.238 -0.1863 -0.2211 -1.0915
 5666UDC    C1162326  17.953  16.362  -0.177 -0.7333  0.2911 -0.0483
 5667UDC     C162327   5.564  11.083   0.557  0.9631 -0.6500 -0.0078
 5667UDC     C262328   5.479  11.197   0.482 -0.7760  0.0723 -0.2639
 5667UDC     C362329   5.334  11.162   0.437  0.3756 -0.3912  0.5076
 5667UDC     C462330   5.249  11.261   0.520 -0.7437  0.0657  0.0456
 5667UDC     C562331   5.231  11.234   0.670  0.2677 -0.2379  0.5415
 5667UDC     C662332   5.169  11.097   0.715 -0.0553 -1.2731 -0.1748
 5667UDC     C762333   5.236  11.065   0.852  0.2541  0.1105 -0.1429
 5667UDC     C862334   5.242  10.923   0.916 -0.4681 -0.5525 -0.4119
 5667UDC     C962335   5.368  10.851   0.864  0.9035  0.3456 -0.3228
 5667UDC    C1062336   5.428  10.751   0.971 -0.9792  0.1133  1.2163
 5667UDC    C1162337   5.330  10.637   0.995 -0.2245 -0.3692 -0.1281
 5668UDC     C162338   9.038   1.365  17.708 -0.8688  0.3277 -0.5577
 5668UDC     C262339   8.887   1.357  17.693 -0.3225 -0.5524 -0.3889
 5668UDC     C362340   8.791   1.447  17.771  1.1817 -0.3191 -1.0453
 5668UDC     C462341   8.646   1.398  17.762 -0.9219  0.1111  0.6976
 5668UDC     C562342   8.545   1.459  17.856 -0.0348 -1.1231 -0.2023
 5668UDC     C662343   8.515   1.602  17.809  0.4553  0.0338 -0.4904
 5668UDC     C762344   8.614   1.709  17.858  0.5328  0.2731 -0.1308
 5668UDC     C862345   8.550   1.852  17.867 -0.0914  0.0125 -0.9685
 5668UDC     C962346   8.503   1.925  17.746  0.1206  0.0669  0.0951
 5668UDC    C1062347   8.390   2.021  17.775 -0.2865  0.4781  0.0367
 5668UDC    C1162348   8.382   2.149  17.699  0.3591 -0.3907 -0.2493
 5669UDC     C162349   0.929  10.398   2.315 -0.6541 -0.2085 -1.1439
 5669UDC     C262350   0.990  10.436   2.179  0.4292  0.7583 -0.4961
 5669UDC     C362351   1.131  10.389   2.160  0.1970  0.9301 -0.6219
 5669UDC     C462352   1.241  10.482   2.210  0.5047 -0.1279  0.2888
 5669UDC     C562353   1.383  10.441   2.175  0.2653  0.0130 -1.1674
 5669UDC     C662354   1.496  10.483   2.267  0.6875 -1.3748 -0.2427
 5669UDC     C762355   1.625  10.407   2.288  0.3770 -0.4417 -0.5196
 5669UDC     C862356   1.710  10.413   2.156  0.1297 -0.0284 -0.3615
 5669UDC     C962357   1.862  10.373   2.185  0.7753  0.5910  0.2408
 5669UDC    C1062358   1.890  10.238   2.247  0.5150  1.8120 -0.9420
 5669UDC    C1162359   2.040  10.223   2.264  0.4041  0.2921  0.2034
 5670UDC     C162360   5.603  12.083  18.705 -0.0699  1.0062  0.0590
 5670UDC     C262361   5.456  12.052  18.728  1.1880 -0.2935  0.1199
 5670UDC     C362362   5.416  11.904  18.702 -0.0562  0.9524 -0.3083
 5670UDC     C462363   5.273  11.861  18.732 -0.5703 -0.2561 -0.0629
 5670UDC     C562364   5.245  11.905  18.877  0.0184  0.5207 -0.3607
 5670UDC     C662365   5.340  11.864  18.993  0.9041 -0.5189  0.2114
 5670UDC     C762366   5.307  11.935  19.131 -0.7145 -0.9573  0.5058
 5670UDC     C862367   5.330  12.090  19.133  0.2713 -0.7275 -1.3055
 5670UDC     C962368   5.282  12.169  19.254 -0.7252 -0.9338  0.6432
 5670UDC    C1062369   5.382  12.277  19.303  0.6186 -0.2566  0.2425
 5670UDC    C1162370   5.373  12.308  19.459  0.7098 -0.4332 -0.7221
 5671UDC     C162371   5.801   8.462   9.349  0.5246  0.0008  0.1383
 5671UDC     C262372   5.873   8.585   9.401 -0.9725 -0.4099  0.3944
 5671UDC     C362373   5.998   8.579   9.494 -0.9264  0.1434 -0.6485
 5671UDC     C462374   6.046   8.715   9.546  0.7744 -0.4988 -1.0387
 5671UDC     C562375   6.133   8.717   9.676  0.3879 -1.3841 -0.4520
 5671UDC     C662376   6.183   8.858   9.730  0.2063 -0.5351 -0.4840
 5671UDC     C762377   6.106   8.908   9.857 -0.7899 -0.9069 -0.0955
 5671UDC     C862378   6.110   9.061   9.870  0.6118  0.4723 -0.4574
 5671UDC     C962379   6.045   9.130  10.002  0.3339 -0.0560 -0.1219
 5671UDC    C1062380   6.042   9.284  10.000  0.1137 -0.3311 -0.3867
 5671UDC    C1162381   6.177   9.359  10.011 -0.1461  0.7856  0.7426
 5672UDC     C162382  14.212  17.911   5.681 -0.6456 -0.4512 -0.1668
 5672UDC     C262383  14.248  17.822   5.794  0.0222 -0.2280  0.1535
 5672UDC     C362384  14.386  17.779   5.758 -0.2582  0.0598  0.5254
 5672UDC     C462385  14.481  17.898   5.784  0.1949 -0.2024 -0.4079
 5672UDC     C562386  14.633  17.879   5.779 -0.1005 -0.1847 -0.8789
 5672UDC     C662387  14.670  17.828   5.641  1.3529  0.5642 -1.2910
 5672UDC     C762388  14.816  17.845   5.614 -0.1891  0.3195  0.6654
 5672UDC     C862389  14.878  17.979   5.603  0.5460 -1.0218 -0.5380
 5672UDC     C962390  15.031  17.996   5.571 -1.0340 -0.7387  0.7824
 5672UDC    C1062391  15.099  18.066   5.692  0.2253  0.6462  0.1788
 5672UDC    C1162392  15.253  18.099   5.705  0.6666  0.5827  0.2484
 5673UDC     C162393  17.253  10.421  10.251 -0.1026  0.2187  0.5213
 5673UDC     C262394  17.149  10.443  10.360  0.1300 -0.3139  0.5179
 5673UDC     C362395  17.033  10.343  10.369  0.1878 -0.3142 -0.8464
 5673UDC     C462396  17.057  10.207  10.425 -0.8696 -0.8631  0.8454
 5673UDC     C562397  17.078  10.120  10.300 -0.1488 -0.9252  0.7156
 5673UDC     C662398  16.993  10.158  10.181 -0.9063  0.4729 -0.1113
 5673UDC     C762399  16.983  10.060  10.057 -0.9541 -0.5708 -0.5228
 5673UDC     C862400  16.891   9.942  10.053 -0.5734 -0.8909 -0.2191
 5673UDC     C962401  16.899   9.837   9.951  0.0844  0.8337  0.1545
 5673UDC    C1062402  16.897   9.868   9.801 -0.1464 -1.2701 -0.6390
 5673UDC    C1162403  16.909   9.750   9.711  0.4940 -0.1785 -0.3543
 5674UDC     C162404   5.576   9.391   6.218  0.7793 -1.2510  0.5310
 5674UDC     C262405   5.659   9.326   6.328 -0.2265 -0.8368  0.4076
 5674UDC     C362406   5.693   9.174   6.303  0.0335 -0.0123 -0.1073
 5674UDC     C462407   5.556   9.101   6.286 -0.6824  0.1015  0.0316
 5674UDC     C562408   5.540   9.037   6.147  0.7257  0.1496 -0.3252
 5674UDC     C662409   5.435   8.914   6.135 -0.1906  0.4774  0.9178
 5674UDC     C762410   5.459   8.822   6.257 -0.8528 -0.1437  0.3978
 5674UDC     C862411   5.325   8.742   6.283 -0.8053 -0.0832 -0.7202
 5674UDC     C962412   5.331   8.618   6.374  0.6655 -0.3188 -0.1048
 5674UDC    C1062413   5.202   8.593   6.448  0.1421 -0.9748  0.5730
 5674UDC    C1162414   5.202   8.459   6.519 -0.1971 -0.9587  0.9370
 5675UDC     C162415   1.083  19.346  12.767  0.0748  0.2464 -0.3103
 5675UDC     C262416   1.199  19.279  12.837  0.2153  0.5678 -0.3293
 5675UDC     C362417   1.336  19.296  12.776  0.6155 -0.2912 -0.1604
 5675UDC     C462418   1.452  19.308  12.885  0.2563  0.5075  0.1605
 5675UDC     C562419   1.602  19.292  12.868 -0.1205 -1.3954  0.7989
 5675UDC     C662420   1.671  19.357  12.980  0.2406 -0.3890 -1.5847
 5675UDC     C762421   1.668  19.514  13.007  0.2205 -0.6378  0.2887
 5675UDC     C862422   1.781  19.575  13.089 -0.2499 -0.2038 -1.5219
 5675UDC     C962423   1.804  19.518  13.232  0.0548 -0.3970  0.0264
 5675UDC    C1062424   1.673  19.507  13.317 -0.4155 -1.2022 -0.0549
 5675UDC    C1162425   1.698  19.513  13.471 -0.4523 -0.6326 -0.6139
 5676UDC     C162426  14.145   2.791   7.840  0.5482  0.5428 -0.9049
 5676UDC     C262427  14.067   2.658   7.865 -0.4904 -0.9363  0.9300
 5676UDC     C362428  14.101   2.530   7.789 -0.1214 -0.1257  0.2087
 5676UDC     C462429  14.031   2.420   7.862  0.7199  1.0824 -1.6212
 5676UDC     C562430  14.076   2.272   7.846  0.7051 -0.1328  0.4018
 5676UDC     C662431  14.160   2.222   7.967 -0.8641  0.4656  0.4184
 5676UDC     C762432  14.230   2.093   7.951  0.6755 -0.7175  0.5789
 5676UDC     C862433  14.323   2.083   7.829 -0.5881 -0.2643  0.7243
 5676UDC     C962434  14.438   2.187   7.825 -0.0377  0.5494 -0.2715
 5676UDC    C1062435  14.534   2.177   7.704 -0.8788  1.1952  0.1287
 5676UDC    C1162436  14.614   2.303   7.723 -0.7771  0.5099  1.3518
 5677UDC     C162437   5.830   9.468  11.141  0.4029  0.4805  0.3713
 5677UDC     C262438   5.917   9.582  11.097 -0.7181 -0.5214 -0.5311
 5677UDC     C362439   5.932   9.677  11.220 -0.7832 -0.3823  1.0897
 5677UDC     C462440   5.977   9.820  11.190 -0.6238 -0.1840 -0.3686
 5677UDC     C562441   5.857   9.917  11.176 -0.6705  0.6723 -0.3887
 5677UDC     C662442   5.901  10.066  11.152 -1.0957 -0.7312 -0.6921
 5677UDC     C762443   5.834  10.173  11.240  0.5093 -0.3682  0.3558
 5677UDC     C862444   5.854  10.152  11.394  0.2601 -0.0431  0.2377
 5677UDC     C962445   5.728  10.122  11.472 -0.7582  0.6504  0.9280
 5677UDC    C1062446   5.704  10.214  11.592  0.0379  0.0849  0.2748
 5677UDC    C1162447   5.594  10.177  11.698 -0.4586 -0.0773  0.3901
 5678UDC     C162448   7.386  15.971   4.043 -0.2974 -0.8181 -0.2295
 5678UDC     C262449   7.398  16.109   4.110  1.0422 -0.1138 -0.5222
 5678UDC     C362450   7.438  16.077   4.253  0.2166 -0.3550 -0.1374
 5678UDC     C462451   7.482  16.202   4.344  0.4376 -0.5617  0.2867
 5678UDC     C562452   7.562  16.165   4.468 -1.1777 -0.6324 -0.2423
 5678UDC     C662453   7.678  16.067   4.444 -0.1316  0.5490 -0.2932
 5678UDC     C762454   7.704  15.980   4.563  0.1314  0.4886 -0.3113
 5678UDC     C862455   7.779  15.852   4.535  0.4482  0.4176 -1.3232
 5678UDC     C962456   7.796  15.779   4.670 -0.2644 -0.3965  0.9217
 5678UDC    C1062457   7.663  15.738   4.744 -0.4834 -0.0479 -0.6695
 5678UDC    C1162458   7.663  15.702   4.893 -0.3294 -0.2661 -0.0782
 5679UDC     C162459   7.736  19.120   3.153 -0.2339  0.6199  1.0190
 5679UDC     C262460   7.790  19.212   3.269 -0.5577 -0.2069 -0.3770
 5679UDC     C362461   7.810  19.141   3.398  0.1408  0.2984  0.0050
 5679UDC     C462462   7.916  19.032   3.368  0.1125 -0.4805 -0.3827
 5679UDC     C562463   7.941  18.955   3.499 -1.3620  0.3753  0.6162
 5679UDC     C662464   7.973  19.045   3.621 -0.6479 -0.6557 -0.4075
 5679UDC     C762465   7.998  18.960   3.755  0.6634  0.1612  0.3942
 5679UDC     C862466   8.105  18.856   3.727  0.4854  0.9379  0.3071
 5679UDC     C962467   8.126  18.760   3.847  0.5728  0.5949 -0.6135
 5679UDC    C1062468   8.022  18.648   3.861  0.1920 -0.4180 -0.5204
 5679UDC    C1162469   8.056  18.568   3.983 -0.1417 -0.1470 -0.2856
 5680UDC     C162470  11.953  16.509  14.640 -0.2833  0.8627  0.0970
 5680UDC     C262471  11.879  16.468  14.769  0.5866  0.4742 -0.2672
 5680UDC     C362472  11.727  16.494  14.758  0.3872  0.0848 -0.6501
 5680UDC     C462473  11.663  16.423  14.636 -0.4917  0.5940 -0.1029
 5680UDC     C562474  11.507  16.405  14.646 -0.1712 -0.6519 -0.4409
 5680UDC     C662475  11.429  16.325  14.539  0.2806 -0.8130  0.6751
 5680UDC     C762476  11.422  16.363  14.390  0.4050 -0.0938  0.3743
 5680UDC     C862477  11.358  16.496  14.344  1.7163 -0.1214  0.6098
 5680UDC     C962478  11.374  16.531  14.197 -0.5509  0.3936 -1.6647
 5680UDC    C1062479  11.516  16.554  14.158 -0.7298  0.7973  0.7373
 5680UDC    C1162480  11.522  16.576  14.006  0.2204 -0.7667  0.3120
 5681UDC     C162481  12.713  11.986   1.817 -0.6345  0.0957 -0.4479
 5681UDC     C262482  12.828  11.953   1.715  0.5617 -0.9793  0.0645
 5681UDC     C362483  12.846  12.092   1.645  0.2688 -0.2560  0.6676
 5681UDC     C462484  12.960  12.100   1.541  0.2425 -0.7093 -0.1920
 5681UDC     C562485  12.957  12.003   1.419 -1.5937 -0.0542  0.4079
 5681UDC     C662486  12.986  12.064   1.277  1.7464 -0.9916  0.8336
 5681UDC     C762487  12.987  11.962   1.166  1.5502  0.9557 -0.1424
 5681UDC     C862488  12.944  12.004   1.018  0.1754 -0.0968 -0.0293
 5681UDC     C962489  12.935  11.879   0.926 -0.6660 -0.7651  0.3642
 5681UDC    C1062490  12.886  11.911   0.785 -0.2876  1.0384 -0.3225
 5681UDC    C1162491  12.862  11.785   0.704 -0.5639  0.4249  0.8393
 5682UDC     C162492  18.797  17.564   9.452 -0.7749  0.5093  0.0160
 5682UDC     C262493  18.784  17.443   9.358 -0.6177  0.0244 -1.1585
 5682UDC     C362494  18.878  17.463   9.242  0.4782  0.2882 -0.9915
 5682UDC     C462495  19.014  17.517   9.295  0.7607  0.8110  0.0129
 5682UDC     C562496  19.125  17.528   9.184 -0.7672 -0.2176 -1.5503
 5682UDC     C662497  19.260  17.575   9.235 -0.8990 -1.7182  0.1613
 5682UDC     C762498  19.334  17.485   9.333  0.7020 -0.3135  0.0283
 5682UDC     C862499  19.359  17.336   9.305 -0.1563  0.7617 -0.7899
 5682UDC     C962500  19.452  17.264   9.411 -0.4849 -0.1676 -0.3728
 5682UDC    C1062501  19.371  17.218   9.531  0.2348  0.0912 -0.2173
 5682UDC    C1162502  19.427  17.132   9.640 -0.6165  0.1331  0.9607
 5683UDC     C162503  10.188   7.789   9.857 -0.8452  0.2432  0.7553
 5683UDC     C262504  10.185   7.934   9.873  0.5455 -1.0009 -0.8389
 5683UDC     C362505  10.254   8.037   9.785  0.3473  0.0938 -0.3921
 5683UDC     C462506  10.194   8.180   9.776  0.0844 -0.1193 -1.0581
 5683UDC     C562507  10.241   8.260   9.654  0.0998 -0.7428 -0.9221
 5683UDC     C662508  10.191   8.203   9.513 -0.3113 -0.4363  0.1361
 5683UDC     C762509  10.268   8.291   9.408  0.3376 -1.2298  0.4442
 5683UDC     C862510  10.160   8.340   9.308  0.5780  0.6419 -0.8090
 5683UDC     C962511  10.223   8.409   9.184  0.7111 -0.4600 -0.0999
 5683UDC    C1062512  10.130   8.516   9.118 -0.3898  0.3587 -0.4300
 5683UDC    C1162513  10.202   8.590   9.009 -0.1963  0.2440 -0.2059
 5684UDC     C162514  19.547  12.304  15.592  0.7608  0.2170  0.3279
 5684UDC     C262515  19.445  12.255  15.693  0.3459 -0.5097 -0.1143
 5684UDC     C362516  19.332  12.351  15.734  0.1000  0.6615 -0.4088
 5684UDC     C462517  19.241  12.291  15.843 -0.4288 -0.6070 -0.3743
 5684UDC     C562518  19.134  12.378  15.911  0.2747 -0.3686  0.1930
 5684UDC     C662519  18.989  12.344  15.856 -1.0930 -0.2601 -0.1729
 5684UDC     C762520  18.896  12.470  15.814  0.2472 -0.2300 -0.0108
 5684UDC     C862521  18.865  12.583  15.918 -0.7533 -0.0796 -0.4395
 5684UDC     C962522  18.790  12.705  15.874 -0.1583 -0.0813 -0.2134
 5684UDC    C1062523  18.660  12.687  15.795  0.1798 -0.8804  0.8317
 5684UDC    C1162524  18.564  12.809  15.787 -0.5922 -0.2663 -0.5559
 5685UDC     C162525   0.448   0.770   3.418 -0.8999  0.1278 -0.3964
 5685UDC     C262526   0.295   0.801   3.444 -0.4020  0.7262 -0.0728
 5685UDC     C362527   0.252   0.946   3.466 -0.3467 -0.1117  0.3709
 5685UDC     C462528   0.216   0.980   3.611 -0.2560  1.0899  0.0760
 5685UDC     C562529   0.138   1.104   3.654 -0.9578 -0.0409  0.3193
 5685UDC     C662530   0.047   1.052   3.766 -0.6214 -0.6647 -0.0546
 5685UDC     C762531   0.120   1.023   3.898 -0.6225 -1.3234 -0.5027
 5685UDC     C862532   0.022   0.997   4.017  0.4375 -0.9787 -0.2318
 5685UDC     C962533   0.090   1.009   4.153 -0.2076 -0.8955  0.9893
 5685UDC    C1062534  -0.000   0.996   4.276 -0.2996  0.1197 -0.5701
 5685UDC    C1162535   0.071   1.014   4.412  0.5048 -0.0083 -1.0847
 5686UDC     C162536   0.385  16.376  13.089  0.7367 -0.4735  0.8818
 5686UDC     C262537   0.442  16.507  13.162 -0.1280  0.2882 -0.8917
 5686UDC     C362538   0.341  16.565  13.254 -0.5946  0.1229  0.3364
 5686UDC     C462539   0.379  16.701  13.310  0.0940 -0.4662  0.2963
 5686UDC     C562540   0.359  16.815  13.211  0.5978 -0.1684  0.6356
 5686UDC     C662541   0.397  16.960  13.255  0.5406 -0.0156  0.3229
 5686UDC     C762542   0.343  17.001  13.400  0.2962  0.0153  1.4630
 5686UDC     C862543   0.444  17.073  13.497 -0.4967  0.7789  0.6744
 5686UDC     C962544   0.387  17.176  13.590 -0.1136 -0.3428 -1.7064
 5686UDC    C1062545   0.491  17.227  13.698 -0.2256  0.3746  0.3736
 5686UDC    C1162546   0.614  17.316  13.663  0.8205 -0.5565 -0.3817
 5687UDC     C162547   0.874   5.290   7.392 -0.7287 -0.1540  0.9825
 5687UDC     C262548   0.936   5.171   7.475 -1.3857  0.1535 -0.8746
 5687UDC     C362549   0.886   5.021   7.465 -0.8561 -0.5445 -0.7288
 5687UDC     C462550   0.888   4.963   7.321 -0.4419 -0.6410  0.1903
 5687UDC     C562551   0.940   4.816   7.296  1.0588 -0.0397  1.0866
 5687UDC     C662552   0.907   4.757   7.153  0.9594 -0.7309 -1.2539
 5687UDC     C762553   1.007   4.656   7.105 -0.4773  0.3200  0.6323
 5687UDC     C862554   0.979   4.609   6.960  0.5787 -0.8554  0.0067
 5687UDC     C962555   1.022   4.729   6.865 -0.4963 -0.0533 -1.1678
 5687UDC    C1062556   1.031   4.701   6.717 -0.0094 -0.3723 -0.6006
 5687UDC    C1162557   1.042   4.830   6.637 -0.0330 -0.8079 -0.1517
 5688UDC     C162558   8.215  15.934  12.817 -1.0927  0.3333  0.0244
 5688UDC     C262559   8.101  15.836  12.860  0.3507 -0.7267 -0.7646
 5688UDC     C362560   8.144  15.772  13.001 -0.1075 -1.1803  0.0377
 5688UDC     C462561   8.116  15.623  13.030  0.5397 -0.5815 -0.4912
 5688UDC     C562562   8.240  15.577  13.103 -0.1562 -0.4210  0.4954
 5688UDC     C662563   8.260  15.423  13.116 -0.3230  0.3301  0.4368
 5688UDC     C762564   8.175  15.340  13.210  1.1928  0.9842  1.8283
 5688UDC     C862565   8.102  15.231  13.120 -0.8335  0.7199 -0.5775
 5688UDC     C962566   8.032  15.119  13.205  0.0733 -0.4434 -0.2458
 5688UDC    C1062567   7.999  14.994  13.118  0.7975 -0.3052 -0.7860
 5688UDC    C1162568   7.901  14.900  13.197  1.5574 -1.0786  0.1307
 5689UDC     C162569   6.177  15.697  14.047 -0.8061  0.0828 -0.1622
 5689UDC     C262570   6.076  15.579  14.037  0.5622  0.4916 -0.2172
 5689UDC     C362571   6.006  15.511  14.161 -0.4938  0.1031  0.0618
 5689UDC     C462572   5.947  15.607  14.260  0.0457 -0.4301 -0.0665
 5689UDC     C562573   5.947  15.532  14.400  1.4018  0.8303 -0.4085
 5689UDC     C662574   5.876  15.606  14.518 -0.7712  1.0115 -1.2087
 5689UDC     C762575   5.916  15.535  14.652 -0.6971 -1.1596  0.5646
 5689UDC     C862576   6.054  15.568  14.712 -0.3959 -1.1145  1.1207
 5689UDC     C962577   6.087  15.446  14.801  0.2245  0.0336 -0.5846
 5689UDC    C1062578   6.018  15.447  14.939 -0.4045  0.4583 -0.5166
 5689UDC    C1162579   6.013  15.590  14.996  0.3079 -0.5421 -1.1037
 5690UDC     C162580  17.129  11.359   7.489  0.7127  0.1759 -0.0673
 5690UDC     C262581  17.277  11.416   7.473  0.4600 -0.1908 -0.3447
 5690UDC     C362582  17.348  11.426   7.606  0.8524 -0.1772 -0.0704
 5690UDC     C462583  17.279  11.517   7.711 -0.5418 -0.4891 -0.0716
 5690UDC     C562584  17.333  11.523   7.853 -1.0350  0.0098  0.2431
 5690UDC     C662585  17.279  11.641   7.928 -0.0529 -0.5427 -0.1087
 5690UDC     C762586  17.161  11.606   8.032  0.5030  0.1570  0.1951
 5690UDC     C862587  17.018  11.613   7.973  0.5971  1.2380  0.2890
 5690UDC     C962588  16.918  11.564   8.081  0.3140 -0.0884  1.3712
 5690UDC    C1062589  16.943  11.406   8.094  0.8060  0.2983 -0.2876
 5690UDC    C1162590  16.830  11.318   8.037  0.0236 -0.3600  0.2005
 5691UDC     C162591   7.869   2.299  15.613  0.3802 -0.6794  0.9026
 5691UDC     C262592   7.811   2.370  15.488  0.4888 -0.0731 -0.1588
 5691UDC     C362593   7.923   2.456  15.424 -0.0211 -0.0871 -0.4075
 5691UDC     C462594   8.063   2.437  15.481  0.3687  1.1173  0.6908
 5691UDC     C562595   8.166   2.457  15.368 -1.2038 -0.0155  0.9015
 5691UDC     C662596   8.286   2.369  15.392  0.0965 -0.3680 -1.1904
 5691UDC     C762597   8.276   2.227  15.338 -0.7137  0.5787  0.2268
 5691UDC     C862598   8.399   2.132  15.356  0.7979  0.8743  0.1618
 5691UDC     C962599   8.380   2.073  15.502 -0.0756  0.0387  1.0725
 5691UDC    C1062600   8.409   1.924  15.512  0.4553  0.3303 -0.7367
 5691UDC    C1162601   8.460   1.912  15.660  0.6903  0.8389  0.6381
 5692UDC     C162602  13.729  16.542   4.399 -0.8901  0.1328  0.1826
 5692UDC     C262603  13.740  16.695   4.371  0.2125 -0.9479  0.4784
 5692UDC     C362604  13.834  16.748   4.261 -0.2606  0.2728  0.4850
 5692UDC     C462605  13.841  16.901   4.258  1.0104 -0.3494 -0.2104
 5692UDC     C562606  13.868  16.970   4.124 -0.5661 -0.4773 -0.0689
 5692UDC     C662607  14.020  16.971   4.094 -0.0845 -0.8166  0.5072
 5692UDC     C762608  14.038  17.055   3.961  0.6380 -0.1598  0.0078
 5692UDC     C862609  14.087  16.988   3.833 -0.4329  0.8126 -0.6876
 5692UDC     C962610  14.233  16.944   3.843  0.5647  0.4066 -0.0894
 5692UDC    C1062611  14.287  16.833   3.748  0.2430  1.6552 -0.5399
 5692UDC    C1162612  14.410  16.781   3.827 -0.6581  0.0299  0.0086
 5693UDC     C162613  10.976   7.942  12.812 -0.5987 -0.5159 -0.2025
 5693UDC     C262614  11.130   7.955  12.833  0.4576 -0.4643  0.6152
 5693UDC     C362615  11.197   7.960  12.686  0.3018  0.4837  0.0159
 5693UDC     C462616  11.339   7.905  12.692  0.2285 -1.1812  0.1298
 5693UDC     C562617  11.436   7.978  12.792  0.4115  0.1123  0.7632
 5693UDC     C662618  11.562   7.897  12.818 -0.6180 -0.2189 -1.2029
 5693UDC     C762619  11.616   7.939  12.956 -0.2733 -0.6650  0.6805
 5693UDC     C862620  11.526   7.881  13.074 -0.4421 -0.6826  0.0340
 5693UDC     C962621  11.584   7.926  13.209 -0.7303 -0.7627  0.4176
 5693UDC    C1062622  11.504   7.895  13.343  0.2501 -0.1483  0.4356
 5693UDC    C1162623  11.384   7.988  13.375 -0.1200 -0.4364 -0.4555
 5694UDC     C162624  12.173  19.585   4.751  0.1468 -0.3953  0.1702
 5694UDC     C262625  12.044  19.513   4.725  0.1716  0.2326  0.2421
 5694UDC     C362626  11.920  19.568   4.794 -0.3914 -1.0886 -1.0813
 5694UDC     C462627  11.942  19.555   4.948  0.5603  0.2666  0.8287
 5694UDC     C562628  11.824  19.568   5.046  0.0845 -0.8612  1.2489
 5694UDC     C662629  11.847  19.565   5.196  0.1936 -0.4466  0.7035
 5694UDC     C762630  11.845  19.418   5.248 -1.0389  0.3751 -0.0442
 5694UDC     C862631  11.710  19.355   5.227  0.0540  0.3593  1.1661
 5694UDC     C962632  11.668  19.242   5.326 -0.2986 -0.0566 -0.3770
 5694UDC    C1062633  11.556  19.146   5.283  0.2776  0.3463 -0.5936
 5694UDC    C1162634  11.427  19.203   5.237 -0.7131 -0.3503  0.1744
 5695UDC     C162635   1.271   1.729   1.995  0.3530  0.5013  0.2912
 5695UDC     C262636   1.283   1.650   1.865 -0.3323 -0.4783 -0.6342
 5695UDC     C362637   1.392   1.701   1.772 -1.5400 -1.7621 -0.2142
 5695UDC     C462638   1.527   1.716   1.842 -0.1017 -0.0174  0.1458
 5695UDC     C562639   1.594   1.847   1.781 -0.1941  0.8878 -2.5330
 5695UDC     C662640   1.745   1.852   1.800 -0.4180 -0.3404 -0.3218
 5695UDC     C762641   1.835   1.746   1.727  0.8996 -0.1876 -0.6432
 5695UDC     C862642   1.851   1.797   1.581 -0.2669  0.5099  0.3219
 5695UDC     C962643   1.915   1.938   1.563 -0.1693 -0.7443  0.7197
 5695UDC    C1062644   1.938   2.005   1.418  0.6319  0.3931 -0.6922
 5695UDC    C1162645   2.064   1.959   1.339  0.3179 -0.4542  0.8559
 5696UDC     C162646   4.497  19.472   7.528 -0.2934  0.4352  0.3387
 5696UDC     C262647   4.576  19.375   7.430  0.4987  0.4355  0.8195
 5696UDC     C362648   4.530  19.234   7.417 -0.9617 -0.5484  0.0820
 5696UDC     C462649   4.399  19.240   7.339  0.2573 -0.6861  0.1156
 5696UDC     C562650   4.404  19.302   7.196 -0.3385 -0.4335  0.4360
 5696UDC     C662651   4.272  19.302   7.131  1.2210  0.5544 -0.3785
 5696UDC     C762652   4.280  19.391   7.008  0.6977 -0.8288 -0.5797
 5696UDC     C862653   4.413  19.470   7.024  0.4690 -1.1769  0.5971
 5696UDC     C962654   4.424  19.564   6.903  0.3622 -0.2075  0.1519
 5696UDC    C1062655   4.409  19.477   6.777  0.5111 -0.9163  0.7467
 5696UDC    C1162656   4.308  19.535   6.671 -0.3425 -0.5071  0.7344
 5697UDC     C162657   3.853  17.131  13.954 -0.2566 -1.2346  0.1637
 5697UDC     C262658   3.778  17.026  13.879 -0.3449  0.2787 -0.4436
 5697UDC     C362659   3.621  17.033  13.895 -0.9483 -0.3406 -0.1445
 5697UDC     C462660   3.591  17.025  14.052 -0.4607  0.7735 -0.1851
 5697UDC     C562661   3.625  16.893  14.121  0.5126 -0.9705 -0.3110
 5697UDC     C662662   3.599  16.899  14.276 -1.2419 -0.6674 -0.4498
 5697UDC     C762663   3.631  16.776  14.363  0.3289  0.2270  0.7649
 5697UDC     C862664   3.755  16.689  14.309 -0.0187 -0.0123  0.0132
 5697UDC     C962665   3.883  16.777  14.336 -0.3600 -0.9596  0.6256
 5697UDC    C1062666   4.017  16.701  14.301  0.2748 -0.5872 -0.0842
 5697UDC    C1162667   4.010  16.570  14.225  0.2602  0.9879 -0.1407
 5698UDC     C162668   2.580  12.410   4.465  0.1510  0.4420 -0.4798
 5698UDC     C262669   2.533  12.321   4.580  0.0255 -0.2632 -2.5466
 5698UDC     C362670   2.423  12.382   4.680 -0.0542  0.1322 -1.1645
 5698UDC     C462671   2.426  12.315   4.825  0.6642  0.5406 -0.1866
 5698UDC     C562672   2.307  12.361   4.913  0.6092  0.3808 -0.5147
 5698UDC     C662673   2.235  12.491   4.876 -0.7676  0.9645 -1.1265
 5698UDC     C762674   2.102  12.526   4.945 -0.7027 -0.2835 -1.3034
 5698UDC     C862675   1.987  12.441   4.905 -0.6236 -0.0795  0.4973
 5698UDC     C962676   1.844  12.487   4.947 -0.3735  0.7877 -0.3142
 5698UDC    C1062677   1.738  12.395   4.882  0.2082 -0.2413 -0.2730
 5698UDC    C1162678   1.774  12.297   4.772 -0.6534 -0.5780  0.1263
 5699UDC     C162679   1.941  12.886   0.832  0.6772  0.7950  0.3073
 5699UDC     C262680   2.090  12.924   0.860  0.0668 -0.1452  0.0505
 5699UDC     C362681   2.129  13.031   0.963  1.1631  0.5416  0.4613
 5699UDC     C462682   2.264  13.024   1.041 -0.2759  1.0804  0.0486
 5699UDC     C562683   2.238  13.050   1.189 -0.4076  0.5401 -0.4164
 5699UDC     C662684   2.137  12.950   1.253 -1.4493  1.0306  0.0392
 5699UDC     C762685   2.105  12.979   1.404 -0.7117  0.7038  0.3502
 5699UDC     C862686   2.207  12.929   1.508 -0.1492 -0.1913  0.0586
 5699UDC     C962687   2.271  12.793   1.476 -0.0363 -0.4466 -0.0553
 5699UDC    C1062688   2.413  12.794   1.526 -0.1552 -1.3695  0.9196
 5699UDC    C1162689   2.493  12.898   1.458 -0.4487 -0.7005 -0.5901
 5700UDC     C162690   9.147  16.200   5.466 -0.4878  0.6940  1.1188
 5700UDC     C262691   9.264  16.232   5.363  0.7122 -0.0618 -0.4088
 5700UDC     C362692   9.246  16.368   5.301  0.4642 -0.9800  0.6105
 5700UDC     C462693   9.346  16.380   5.186 -0.3046 -1.2227 -0.3229
 5700UDC     C562694   9.376  16.525   5.146  1.0600  0.0954 -1.1871
 5700UDC     C662695   9.486  16.563   5.051 -0.6858  0.5028 -0.3729
 5700UDC     C762696   9.495  16.711   5.020  0.7261 -1.5060 -0.2058
 5700UDC     C862697   9.407  16.792   5.115  0.5569  0.4748 -0.0105
 5700UDC     C962698   9.367  16.924   5.053 -0.2026  1.1295  0.7675
 5700UDC    C1062699   9.307  17.024   5.150 -1.1317 -1.0847 -1.9285
 5700UDC    C1162700   9.202  17.093   5.069  0.2818  0.6663 -0.8306
 5701UDC     C162701   8.073  14.680  12.222  0.0129 -0.6949 -0.1641
 5701UDC     C262702   8.064  14.538  12.155 -0.2446  1.3440 -0.0855
 5701UDC     C362703   8.178  14.430  12.159  0.6100  0.0746 -0.7845
 5701UDC     C462704   8.133  14.304  12.081 -0.2090  0.1743  0.4693
 5701UDC     C562705   8.231  14.185  12.070  0.9902  0.1526  0.4869
 5701UDC     C662706   8.306  14.143  12.195 -0.1259  0.6949  0.8406
 5701UDC     C762707   8.364  13.999  12.174  0.8674  0.2225  0.4694
 5701UDC     C862708   8.507  13.996  12.129  0.2348 -0.2421  0.3524
 5701UDC     C962709   8.595  13.967  12.253  0.0820  1.0388 -0.9210
 5701UDC    C1062710   8.627  14.092  12.339 -0.2204 -0.1462  1.1402
 5701UDC    C1162711   8.707  14.211  12.272 -0.4480  0.4167  0.3925
 5702UDC     C162712  12.078   8.691   8.091 -0.5577 -0.1652 -0.1841
 5702UDC     C262713  12.032   8.700   8.238 -0.6678  0.7887 -1.0628
 5702UDC     C362714  12.039   8.842   8.307 -0.1630  0.3650 -0.0742
 5702UDC     C462715  12.011   8.865   8.457 -0.3601  0.0786 -0.5328
 5702UDC     C562716  11.921   8.985   8.498 -1.0011 -0.0639  0.5549
 5702UDC     C662717  11.935   9.112   8.410 -0.1450  0.8099  0.3264
 5702UDC     C762718  11.856   9.239   8.445  0.5690 -0.5454  0.0742
 5702UDC     C862719  11.891   9.373   8.374  0.0945 -0.0488  1.0658
 5702UDC     C962720  11.800   9.495   8.399  0.0488 -1.6030 -0.6149
 5702UDC    C1062721  11.861   9.633   8.345  0.9450  0.0045  0.2113
 5702UDC    C1162722  12.008   9.649   8.295  0.7965 -0.1690  0.6474
 5703UDC     C162723  16.740   8.492   9.039  0.8085 -0.9177  0.5440
 5703UDC     C262724  16.857   8.397   9.059  0.0673  1.0552 -0.1676
 5703UDC     C362725  16.988   8.461   9.016 -0.5697  0.3559  0.1742
 5703UDC     C462726  17.045   8.579   9.104  0.2786  0.0914 -0.6887
 5703UDC     C562727  17.196   8.585   9.093  0.2255 -0.7457 -1.1024
 5703UDC     C662728  17.259   8.697   9.176 -0.5949 -0.0345 -0.6229
 5703UDC     C762729  17.251   8.833   9.113 -0.9725 -0.7854  0.1325
 5703UDC     C862730  17.331   8.881   8.987 -0.7660  0.3259 -0.8268
 5703UDC     C962731  17.302   9.035   8.975 -0.0688 -0.1961 -0.1697
 5703UDC    C1062732  17.325   9.123   9.098 -0.1900  0.6714 -1.2303
 5703UDC    C1162733  17.360   9.277   9.070 -0.9810  0.6456  0.1282
 5704UDC     C162734  14.665   3.641   5.098 -0.0988 -0.3556 -0.4042
 5704UDC     C262735  14.800   3.643   5.171 -0.3188 -0.3582  0.4904
 5704UDC     C362736  14.785   3.634   5.326  0.3887 -0.3677  0.0727
 5704UDC     C462737  14.689   3.512   5.367 -0.9066 -0.5676 -0.4218
 5704UDC     C562738  14.739   3.492   5.512 -0.7452  0.3310 -0.4943
 5704UDC     C662739  14.891   3.462   5.542  0.3583 -0.2881 -0.2486
 5704UDC     C762740  14.930   3.471   5.691 -0.1894  0.5150 -0.8547
 5704UDC     C862741  14.907   3.600   5.761  1.4684  0.0788  0.3619
 5704UDC     C962742  14.954   3.614   5.910 -0.4382  0.0161  0.6648
 5704UDC    C1062743  14.913   3.750   5.970 -0.1417  0.8208 -0.3197
 5704UDC    C1162744  14.929   3.761   6.123  0.5836 -0.3754  1.7015
 5705UDC     C162745  13.069  16.812   5.732 -0.7424  0.5386  0.1893
 5705UDC     C262746  13.120  16.957   5.712 -0.1262 -0.4542  0.6197
 5705UDC     C362747  13.210  16.952   5.583 -0.5046 -0.2657 -0.3913
 5705UDC     C462748  13.313  17.065   5.559  0.0976 -1.1161  0.7709
 5705UDC     C562749  13.260  17.204   5.616 -0.4857  0.3288  1.0777
 5705UDC     C662750  13.139  17.251   5.545  0.2418 -0.4178  0.4106
 5705UDC     C762751  13.182  17.291   5.399  0.9063 -0.4928 -0.6576
 5705UDC     C862752  13.236  17.432   5.374  0.4650 -0.4951 -0.5482
 5705UDC     C962753  13.194  17.490   5.237  0.6255  0.9373 -0.1262
 5705UDC    C1062754  13.264  17.466   5.107 -0.6776 -1.4447 -0.7035
 5705UDC    C1162755  13.215  17.337   5.045 -0.9524 -0.4353  0.5458
 5706UDC     C162756  10.481   5.711   7.647 -0.4539 -0.3756 -0.0088
 5706UDC     C262757  10.601   5.786   7.593  0.0655 -0.9106  0.6390
 5706UDC     C362758  10.567   5.872   7.470  0.2067  0.4829  1.4066
 5706UDC     C462759  10.651   6.000   7.473 -0.0349  0.2630  0.3247
 5706UDC     C562760  10.801   5.952   7.492  0.7213 -0.6757 -0.4972
 5706UDC     C662761  10.889   6.048   7.419 -0.2221  0.0339 -0.9561
 5706UDC     C762762  11.038   6.096   7.447  0.9559 -1.0294  0.2537
 5706UDC     C862763  11.146   5.985   7.442 -0.1301 -0.6310 -0.8372
 5706UDC     C962764  11.264   6.001   7.545 -0.4968 -0.6533  0.4805
 5706UDC    C1062765  11.373   5.892   7.509 -0.8119 -0.6874  0.0646
 5706UDC    C1162766  11.471   5.856   7.624  0.3971  0.8531 -0.8199
 5707UDC     C162767  11.219  10.277  17.523  0.3154  0.3707  0.6760
 5707UDC     C262768  11.164  10.236  17.383  0.5406 -0.1625 -0.2753
 5707UDC     C362769  11.034  10.323  17.345 -0.7530  0.5992 -0.0746
 5707UDC     C462770  10.956  10.261  17.230 -0.6863 -0.9570  1.1520
 5707UDC     C562771  10.860  10.144  17.239 -0.6770 -0.0389 -0.7555
 5707UDC     C662772  10.779  10.096  17.121 -0.7741  0.9954 -0.3331
 5707UDC     C762773  10.842   9.981  17.039 -0.2280 -0.0796  1.1159
 5707UDC     C862774  10.722   9.899  16.980 -0.4270  0.2746 -0.8096
 5707UDC     C962775  10.723   9.933  16.828 -0.5783  1.3725 -0.6916
 5707UDC    C1062776  10.599   9.894  16.745  0.9041  0.1578 -0.3201
 5707UDC    C1162777  10.612   9.972  16.615  0.6080  0.3666 -0.1187
 5708UDC     C162778  16.213  19.003   4.927  0.0019 -1.1304  0.4719
 5708UDC     C262779  16.155  18.923   5.052 -0.7270  0.3087  0.4108
 5708UDC     C362780  16.000  18.916   5.070 -1.4569  0.0142 -0.5433
 5708UDC     C462781  15.961  18.823   5.178 -0.4956  0.7680 -0.0061
 5708UDC     C562782  16.071  18.715   5.197 -0.1215 -0.1702 -0.3213
 5708UDC     C662783  16.048  18.633   5.326 -0.3770  0.2275  0.4389
 5708UDC     C762784  16.009  18.734   5.442 -0.1728  0.6161  0.3704
 5708UDC     C862785  15.948  18.667   5.566  0.0275 -1.0065 -0.1784
 5708UDC     C962786  15.894  18.765   5.669 -0.4615 -0.9536  0.0728
 5708UDC    C1062787  15.824  18.703   5.792  0.9604  0.2273  0.1609
 5708UDC    C1162788  15.673  18.684   5.762 -0.0754 -0.0850  0.4997
 5709UDC     C162789   9.162   8.281  10.487  0.1618  0.7578 -0.0858
 5709UDC     C262790   9.051   8.345  10.571 -0.0529  0.3130 -0.2666
 5709UDC     C362791   9.105   8.483  10.608  0.5732  0.2334 -1.7241
 5709UDC     C462792   9.007   8.604  10.619 -0.5441 -0.1770  0.0391
 5709UDC     C562793   8.900   8.597  10.724  0.3717  0.2894 -0.9470
 5709UDC     C662794   8.841   8.730  10.773  0.2732 -0.1023  0.0991
 5709UDC     C762795   8.746   8.734  10.889  0.2709  0.9230  0.3393
 5709UDC     C862796   8.600   8.706  10.834 -0.4292  0.5689 -1.0315
 5709UDC     C962797   8.484   8.749  10.919 -1.0386  0.0333 -1.2412
 5709UDC    C1062798   8.355   8.780  10.848 -0.2052  0.8766  0.7791
 5709UDC    C1162799   8.279   8.656  10.791 -0.0321 -1.1742 -0.0393
 5710UDC     C162800  14.317  13.106   7.556 -0.0327 -0.3903  0.6153
 5710UDC     C262801  14.229  13.002   7.631  0.2486 -0.4315 -1.0938
 5710UDC     C362802  14.304  12.980   7.764 -1.0362 -0.8648 -0.4624
 5710UDC     C462803  14.321  13.109   7.849  0.8743  0.0388  0.1671
 5710UDC     C562804  14.438  13.077   7.934 -0.2365 -0.5436  0.1088
 5710UDC     C662805  14.421  12.937   8.007 -0.3350 -0.0757  1.2597
 5710UDC     C762806  14.500  12.944   8.139  0.5641  0.2101  0.3395
 5710UDC     C862807  14.607  12.848   8.160 -0.2945  0.3786 -0.4516
 5710UDC     C962808  14.597  12.724   8.067  0.4049  0.3860 -0.1578
 5710UDC    C1062809  14.709  12.624   8.103  0.3822 -0.1912  0.1827
 5710UDC    C1162810  14.717  12.524   7.986 -0.2896 -1.2172 -0.5986
 5711UDC     C162811   0.943  19.957   2.637  0.1463  0.2596 -0.4620
 5711UDC     C262812   0.845  19.875   2.726  0.5423 -0.2500 -0.4923
 5711UDC     C362813   0.780  19.754   2.655 -0.7621  0.1504  0.5702
 5711UDC     C462814   0.634  19.771   2.605 -0.4935 -1.5423  0.9407
 5711UDC     C562815   0.632  19.745   2.455  0.0142  0.7330 -0.5374
 5711UDC     C662816   0.496  19.699   2.396  0.1763 -0.5313 -0.1283
 5711UDC     C762817   0.518  19.669   2.245  0.0198 -0.0150 -0.1088
 5711UDC     C862818   0.398  19.713   2.156  0.3544  0.4669  0.0437
 5711UDC     C962819   0.409  19.676   2.009 -0.3140  0.0653  0.2606
 5711UDC    C1062820   0.332  19.750   1.901 -0.2591  0.3924 -0.2858
 5711UDC    C1162821   0.346  19.687   1.758 -0.5784 -0.7286 -0.2987
 5712UDC     C162822  12.604   1.662   1.486 -0.2085 -0.2942  0.0716
 5712UDC     C262823  12.501   1.578   1.410 -0.1468 -0.2409 -0.0641
 5712UDC     C362824  12.366   1.567   1.484  0.4713  1.2729  0.2835
 5712UDC     C462825  12.402   1.545   1.633 -0.4194 -0.0195  0.0885
 5712UDC     C562826  12.291   1.529   1.740 -0.6826  0.3725  0.2237
 5712UDC     C662827  12.174   1.437   1.702 -0.0404 -0.0281 -0.0954
 5712UDC     C762828  12.127   1.347   1.815  0.0907  0.5731 -0.2749
 5712UDC     C862829  11.971   1.321   1.803  1.1455  0.6124 -1.0596
 5712UDC     C962830  11.890   1.258   1.921 -0.1562  0.6588 -0.0161
 5712UDC    C1062831  11.764   1.186   1.871 -1.1993  0.7129 -0.6979
 5712UDC    C1162832  11.651   1.157   1.974  0.1142 -0.8688  0.1803
 5713UDC     C162833   2.572  17.320   4.393 -0.5998 -0.4745 -0.8727
 5713UDC     C262834   2.719  17.272   4.381 -0.6603 -0.3360 -0.1701
 5713UDC     C362835   2.778  17.285   4.521 -0.0530  0.5573  0.0564
 5713UDC     C462836   2.930  17.284   4.521 -0.4944 -0.3255 -0.2054
 5713UDC     C562837   2.996  17.409   4.453 -0.4440 -0.3344  0.0209
 5713UDC     C662838   3.143  17.413   4.407 -0.0648  0.4868 -0.4586
 5713UDC     C762839   3.188  17.326   4.284 -0.0677  0.2022  0.0339
 5713UDC     C862840   3.183  17.402   4.150 -0.5874 -0.0528  0.7645
 5713UDC     C962841   3.241  17.316   4.027  1.3480 -0.0500 -0.3312
 5713UDC    C1062842   3.338  17.403   3.945 -0.3275 -0.0145 -1.3165
 5713UDC    C1162843   3.300  17.555   3.916 -0.2548 -0.1788  0.6887
 5714UDC     C162844  12.468   6.801   4.382 -0.5740  0.3078 -1.8767
 5714UDC     C262845  12.596   6.855   4.447  0.1649 -0.4137  1.0410
 5714UDC     C362846  12.693   6.733   4.462  0.1865 -0.2140  0.0518
 5714UDC     C462847  12.833   6.774   4.495 -0.2159 -0.2984  0.6112
 5714UDC     C562848  12.896   6.723   4.632  0.8500 -1.2116  0.1440
 5714UDC     C662849  12.799   6.756   4.753 -0.0062  0.7070 -0.0151
 5714UDC     C762850  12.861   6.762   4.892  0.1008 -0.8870 -0.0827
 5714UDC     C862851  12.884   6.618   4.946 -0.4529  0.3148 -0.8841
 5714UDC     C962852  13.028   6.624   5.009  1.4245  0.2025  0.1410
 5714UDC    C1062853  13.084   6.486   5.059  2.0712 -0.8638  0.4030
 5714UDC    C1162854  13.091   6.369   4.962  1.0366 -0.5024  0.0494
 5715UDC     C162855   5.832   8.739  13.567 -0.1532  0.1268  0.1536
 5715UDC     C262856   5.791   8.705  13.713 -0.2496  0.5755  0.7015
 5715UDC     C362857   5.908   8.644  13.795 -0.2923  0.3807 -0.0511
 5715UDC     C462858   5.858   8.609  13.935  0.1120 -0.4786  0.1595
 5715UDC     C562859   5.996   8.562  14.000  0.7367 -0.8420  0.0272
 5715UDC     C662860   6.019   8.536  14.144  0.2855 -0.4022 -1.0206
 5715UDC     C762861   6.019   8.384  14.162  0.0044 -0.2497 -1.2315
 5715UDC     C862862   5.886   8.311  14.193 -0.4653 -1.3105  0.0588
 5715UDC     C962863   5.856   8.326  14.345  0.2094  0.8307 -0.4295
 5715UDC    C1062864   5.758   8.221  14.396  1.0179  0.8258 -0.2732
 5715UDC    C1162865   5.616   8.250  14.353 -0.0783  0.1238  0.3437
 5716UDC     C162866  13.208   3.315   7.335  0.0580  0.1598  0.9268
 5716UDC     C262867  13.281   3.202   7.421 -0.8312 -0.5198 -0.2860
 5716UDC     C362868  13.219   3.222   7.560  1.3526 -0.9495 -0.3243
 5716UDC     C462869  13.250   3.355   7.634  0.0592  0.6007 -0.3112
 5716UDC     C562870  13.175   3.402   7.758 -0.2319 -0.4569 -0.4775
 5716UDC     C662871  13.172   3.315   7.885 -0.3147 -0.0359 -0.9435
 5716UDC     C762872  13.069   3.356   7.991 -0.5560 -0.8599  0.1979
 5716UDC     C862873  13.142   3.425   8.108  1.2894 -0.7423 -0.0241
 5716UDC     C962874  13.048   3.431   8.228 -0.4775 -0.3395  0.2752
 5716UDC    C1062875  13.087   3.553   8.314 -0.3033  1.0585 -0.0070
 5716UDC    C1162876  13.241   3.581   8.303  0.1519  0.0758 -0.2507
 5717UDC     C162877   6.818  10.115   1.378 -0.1673 -0.5495  0.2742
 5717UDC     C262878   6.815   9.964   1.360  0.5963  0.0919  0.3265
 5717UDC     C362879   6.673   9.901   1.399 -0.5895 -0.9944 -0.8240
 5717UDC     C462880   6.631   9.763   1.345  0.1265  0.7917 -0.1979
 5717UDC     C562881   6.507   9.778   1.248  0.0520 -1.2313 -0.8348
 5717UDC     C662882   6.458   9.657   1.158  0.6275 -0.8883 -0.6877
 5717UDC     C762883   6.551   9.596   1.052 -0.1720 -0.4939 -0.4560
 5717UDC     C862884   6.487   9.497   0.959 -0.4989 -0.3087 -0.4241
 5717UDC     C962885   6.364   9.549   0.876 -0.2816  0.0217  0.3371
 5717UDC    C1062886   6.402   9.671   0.783  0.3974  1.1542 -1.1203
 5717UDC    C1162887   6.279   9.744   0.714  0.2380  0.0517  0.2609
 5718UDC     C162888   0.243  12.490   1.536  0.2618 -0.6787  0.1776
 5718UDC     C262889   0.396  12.498   1.555  0.4318  0.7861  0.4100
 5718UDC     C362890   0.455  12.360   1.507 -0.3661 -0.9897 -1.5747
 5718UDC     C462891   0.501  12.347   1.359  0.1325  0.9287 -0.2603
 5718UDC     C562892   0.547  12.211   1.309  0.4690 -1.1422 -0.7573
 5718UDC     C662893   0.451  12.181   1.197 -0.8476 -0.2725  0.9363
 5718UDC     C762894   0.369  12.058   1.224  0.1328 -0.4122  0.8946
 5718UDC     C862895   0.335  12.042   1.369 -0.0026 -0.0078  0.1644
 5718UDC     C962896   0.289  11.896   1.396 -0.8164 -0.8387 -0.7636
 5718UDC    C1062897   0.376  11.794   1.322  0.9754 -0.3795 -0.1960
 5718UDC    C1162898   0.320  11.659   1.321  0.4761  0.2295 -0.8290
 5719UDC     C162899  18.846   3.011  13.429  0.5097 -0.8240  0.2426
 5719UDC     C262900  18.949   3.125  13.418 -1.0134 -0.3241 -0.2716
 5719UDC     C362901  19.058   3.097  13.308  0.2278  1.0286  0.7023
 5719UDC     C462902  19.189   3.027  13.355 -0.1562  1.0634  0.6549
 5719UDC     C562903  19.264   3.084  13.471 -0.1609 -0.2782 -0.5126
 5719UDC     C662904  19.319   2.984  13.589  0.0015 -0.2393  1.1400
 5719UDC     C762905  19.375   3.060  13.715 -0.1326  1.1750 -0.6133
 5719UDC     C862906  19.475   2.960  13.785 -0.4177 -0.2927 -1.1697
 5719UDC     C962907  19.543   3.044  13.894 -1.1608 -0.5228 -0.9043
 5719UDC    C1062908  19.692   3.017  13.887  0.2920  0.2612  0.3350
 5719UDC    C1162909  19.746   2.874  13.906  0.2442  0.1199  0.6874
 5720UDC     C162910  12.818   4.664   1.915 -1.5112 -0.0176 -0.6104
 5720UDC     C262911  12.894   4.801   1.897 -0.4914 -0.7495  0.0018
 5720UDC     C362912  12.916   4.850   2.039 -0.8203  1.2212  0.0134
 5720UDC     C462913  13.035   4.946   2.052  0.4871 -0.6062 -0.2933
 5720UDC     C562914  13.040   5.027   1.923  0.2933  0.0034  0.4250
 5720UDC     C662915  13.147   5.137   1.923 -0.3564 -0.7133 -1.1268
 5720UDC     C762916  13.300   5.087   1.944 -0.3235  0.7152 -0.1147
 5720UDC     C862917  13.392   5.205   1.928 -0.2965 -0.9027  0.5771
 5720UDC     C962918  13.360   5.323   2.022  0.1311  0.4626  0.9825
 5720UDC    C1062919  13.489   5.399   2.046 -0.0029 -0.1024 -0.0915
 5720UDC    C1162920  13.547   5.488   1.934 -1.2389  0.0023  0.6589
 5721UDC     C162921   1.883   8.197   2.058 -0.9247 -0.5125 -0.1336
 5721UDC     C262922   1.847   8.192   1.907  0.0529 -0.1092 -0.3446
 5721UDC     C362923   1.937   8.189   1.782 -0.2533 -0.1819 -0.0487
 5721UDC     C462924   1.874   8.234   1.651 -0.0698  0.9213 -0.1220
 5721UDC     C562925   1.967   8.187   1.538 -0.1625 -0.5091 -0.1287
 5721UDC     C662926   1.927   8.270   1.417  0.5016 -0.5180 -1.2060
 5721UDC     C762927   2.028   8.258   1.301 -0.7830 -0.2798 -0.1809
 5721UDC     C862928   1.990   8.330   1.170 -0.6937 -0.8413  0.4118
 5721UDC     C962929   2.117   8.373   1.096  0.8895 -0.9923 -0.1034
 5721UDC    C1062930   2.105   8.426   0.940 -0.1685  0.5227 -0.5194
 5721UDC    C1162931   2.236   8.413   0.857 -0.4811 -0.0809 -0.1470
 5722UDC     C162932   6.871   4.470  11.789 -0.0762  0.2964  0.2266
 5722UDC     C262933   6.784   4.350  11.814  0.4763 -0.5761  0.4774
 5722UDC     C362934   6.825   4.217  11.740  0.7803 -0.9863  0.7492
 5722UDC     C462935   6.775   4.215  11.593 -1.2254  0.4301  0.8750
 5722UDC     C562936   6.855   4.098  11.528 -0.7609  0.6866  1.3150
 5722UDC     C662937   6.812   4.062  11.382  0.2292 -0.1965  0.1643
 5722UDC     C762938   6.868   3.930  11.329 -0.1496  0.9241 -0.0894
 5722UDC     C862939   6.805   3.897  11.193 -1.1640  0.9411  0.6319
 5722UDC     C962940   6.895   3.795  11.119 -0.7084  0.0726 -0.7192
 5722UDC    C1062941   6.859   3.755  10.980 -0.2260  0.0369 -1.4760
 5722UDC    C1162942   6.721   3.670  10.979 -0.3373 -0.2471  0.1874
 5723UDC     C162943   8.129   9.533   1.659 -0.1785  0.4096  0.6238
 5723UDC     C262944   8.134   9.678   1.689  0.0304  0.1065 -0.9512
 5723UDC     C362945   8.141   9.767   1.562 -0.8394  0.1885  0.0243
 5723UDC     C462946   8.006   9.807   1.500 -0.1499  1.5024 -0.0358
 5723UDC     C562947   8.023   9.820   1.348 -0.4453  1.1291 -1.1902
 5723UDC     C662948   8.048   9.685   1.273  0.6064 -0.8956  0.1154
 5723UDC     C762949   7.949   9.577   1.321 -0.8528  0.7484 -0.4070
 5723UDC     C862950   7.893   9.506   1.200  0.0392 -0.0750  0.9442
 5723UDC     C962951   7.807   9.588   1.099 -1.1702 -0.5234 -0.1870
 5723UDC    C1062952   7.770   9.527   0.955 -1.2564  0.2798  0.2926
 5723UDC    C1162953   7.698   9.638   0.880 -0.4791 -0.1372  0.0902
 5724UDC     C162954   8.476  10.433  11.251 -0.6940  0.4383  0.6161
 5724UDC     C262955   8.622  10.450  11.258 -0.6154  0.2034  0.8448
 5724UDC     C362956   8.653  10.588  11.185  0.2111  0.3786 -0.1720
 5724UDC     C462957   8.602  10.583  11.040 -0.3314 -0.0952 -1.3020
 5724UDC     C562958   8.703  10.514  10.944  0.5886  0.2074  0.3347
 5724UDC     C662959   8.816  10.610  10.920 -0.5128 -0.3078  0.2250
 5724UDC     C762960   8.858  10.589  10.771  1.4302 -0.6332  0.5028
 5724UDC     C862961   8.899  10.444  10.730  0.2552 -1.0316  0.6446
 5724UDC     C962962   8.879  10.429  10.569  0.2555  0.2088  0.3323
 5724UDC    C1062963   8.742  10.465  10.509 -0.5028 -0.0855  0.1214
 5724UDC    C1162964   8.751  10.436  10.359  0.3480 -0.4662  0.9963
 5725UDC     C162965   1.037   8.233   3.949  0.4695 -0.4141  0.3109
 5725UDC     C262966   0.976   8.134   3.837 -0.6385 -0.3948 -0.6497
 5725UDC     C362967   0.933   8.005   3.895 -0.6141  0.3818 -0.1301
 5725UDC     C462968   1.045   7.916   3.931 -0.2415 -0.0193 -0.0957
 5725UDC     C562969   1.015   7.761   3.918  0.6849  0.5833  0.2710
 5725UDC     C662970   1.090   7.676   4.023 -0.1894  1.3144  0.3606
 5725UDC     C762971   1.067   7.523   4.013  0.7869 -1.4593 -0.2760
 5725UDC     C862972   1.142   7.458   3.897 -0.1480 -1.2633  0.3343
 5725UDC     C962973   1.072   7.324   3.859  0.5278  0.2123 -0.1727
 5725UDC    C1062974   0.923   7.341   3.868 -0.5067 -0.5378 -0.2866
 5725UDC    C1162975   0.847   7.210   3.877 -0.9105 -0.0949 -0.7088
 5726UDC     C162976  11.695  13.934   2.013  0.9261  0.1447 -0.5847
 5726UDC     C262977  11.616  13.803   2.002  0.4864 -0.1773 -0.4986
 5726UDC     C362978  11.540  13.771   1.874  0.5736 -0.5636  0.4275
 5726UDC     C462979  11.648  13.777   1.765 -0.2291 -0.1419 -0.3424
 5726UDC     C562980  11.640  13.648   1.686 -0.2435 -0.4461 -0.0087
 5726UDC     C662981  11.727  13.636   1.565  0.2158  1.0751 -0.2989
 5726UDC     C762982  11.882  13.657   1.587  0.1654 -0.1864 -0.1507
 5726UDC     C862983  11.952  13.685   1.455  0.3120 -1.1781 -0.1140
 5726UDC     C962984  12.106  13.709   1.469 -0.3154  0.8868  0.4371
 5726UDC    C1062985  12.171  13.795   1.360 -0.0794 -0.8135 -1.1392
 5726UDC    C1162986  12.075  13.803   1.243  0.2845  0.3565 -0.2340
 5727UDC     C162987   5.764  15.317   9.427 -0.7340 -0.2409 -0.2610
 5727UDC     C262988   5.886  15.319   9.529 -0.6373 -0.3768 -0.2597
 5727UDC     C362989   5.885  15.446   9.621  0.4369  0.2209 -0.6929
 5727UDC     C462990   5.769  15.447   9.724 -0.0224  0.6699  0.3713
 5727UDC     C562991   5.782  15.567   9.820 -0.1678  0.1931  0.4925
 5727UDC     C662992   5.832  15.527   9.958 -0.6946 -0.2299 -0.1358
 5727UDC     C762993   5.887  15.644  10.040 -0.3996 -0.2256  0.9360
 5727UDC     C862994   6.043  15.650  10.037 -0.0938 -0.7634  0.2839
 5727UDC     C962995   6.092  15.512  10.077 -0.2773 -0.7529 -0.0571
 5727UDC    C1062996   6.246  15.516  10.107 -0.1532  0.4992  0.0124
 5727UDC    C1162997   6.335  15.393  10.140 -0.4683  0.2694  0.3830
 5728UDC     C162998   8.053  14.152  12.395  0.3237  0.1687  1.2286
 5728UDC     C262999   8.107  14.085  12.522 -0.1331  0.1562 -0.9736
 5728UDC     C363000   8.028  14.132  12.651 -0.2643 -0.0877  0.1537
 5728UDC     C463001   8.061  14.085  12.794  0.2788  0.2869 -1.2647
 5728UDC     C563002   8.095  13.935  12.786  0.6010  0.1509 -1.9443
 5728UDC     C663003   8.195  13.895  12.901  0.2066  0.2159 -0.3149
 5728UDC     C763004   8.134  13.861  13.035 -0.7683  0.0872 -0.6595
 5728UDC     C863005   8.027  13.750  13.024 -0.0931 -1.2449 -0.0763
 5728UDC     C963006   7.973  13.711  13.164 -0.5002  0.8514  1.0103
 5728UDC    C1063007   8.040  13.585  13.223 -0.0531 -0.7433 -0.9603
 5728UDC    C1163008   8.019  13.570  13.374 -0.5314  0.7759 -0.2150
 5729UDC     C163009   9.794  14.829   0.919  0.5603  0.1896 -0.3665
 5729UDC     C263010   9.912  14.829   0.815 -0.5119 -0.1773 -0.0144
 5729UDC     C363011   9.884  14.733   0.702 -1.1745 -0.2919  0.2271
 5729UDC     C463012   9.770  14.784   0.614  0.6590  0.8603 -0.6438
 5729UDC     C563013   9.759  14.706   0.480 -0.0643  1.1064 -0.4961
 5729UDC     C663014   9.650  14.777   0.396 -0.9369 -0.5082 -1.1057
 5729UDC     C763015   9.666  14.749   0.250 -1.1574 -0.8177  0.0968
 5729UDC     C863016   9.809  14.773   0.181 -1.9362  0.1683  0.1945
 5729UDC     C963017   9.800  14.717   0.038  1.7141  0.8764  0.5114
 5729UDC    C1063018   9.813  14.564   0.037  0.1165  0.3665 -0.5094
 5729UDC    C1163019   9.912  14.545   0.156  0.0879 -0.4868 -0.0556
 5730UDC     C163020   8.356  13.554  17.903 -0.4144  0.5349  1.2023
 5730UDC     C263021   8.274  13.552  18.030 -0.1944  0.2822  0.6627
 5730UDC     C363022   8.224  13.680  18.088  0.4086 -0.1910  0.2897
 5730UDC     C463023   8.144  13.643  18.212  0.5395  0.3223 -0.2945
 5730UDC     C563024   8.209  13.670  18.344  0.0645 -1.2021  0.0491
 5730UDC     C663025   8.101  13.650  18.453 -0.6122 -0.3633 -1.2000
 5730UDC     C763026   8.042  13.511  18.473 -0.0493  0.6223 -0.7529
 5730UDC     C863027   7.930  13.515  18.588 -0.7190 -0.3769  0.1611
 5730UDC     C963028   7.825  13.411  18.547 -0.1229  0.4264  0.5033
 5730UDC    C1063029   7.718  13.424  18.653 -1.4469  0.6520 -0.0679
 5730UDC    C1163030   7.754  13.369  18.789 -0.5973  0.2261 -0.7742
 5731UDC     C163031  12.126  18.200   8.906  0.3806  0.9861 -1.2518
 5731UDC     C263032  12.059  18.268   9.031 -0.0432 -0.4773 -0.0562
 5731UDC     C363033  11.924  18.333   9.002  0.4292  0.0208  0.3006
 5731UDC     C463034  11.925  18.436   8.886 -0.1523 -0.0654  0.4645
 5731UDC     C563035  11.983  18.574   8.904 -0.1666  0.2048 -0.5947
 5731UDC     C663036  12.004  18.671   8.788  0.8117  0.1111  0.1030
 5731UDC     C763037  12.051  18.816   8.818  0.5282 -1.0363  0.1186
 5731UDC     C863038  12.182  18.819   8.898 -0.4845 -1.1926 -0.5229
 5731UDC     C963039  12.189  18.927   9.005 -0.4583 -0.6806 -0.3284
 5731UDC    C1063040  12.326  18.927   9.073  0.1579 -0.4359  0.5054
 5731UDC    C1163041  12.368  19.074   9.083 -0.8883  1.5679 -1.3906
 5732UDC     C163042   8.890  17.280  19.653 -0.8803  0.1469  0.5617
 5732UDC     C263043   9.005  17.327  19.559  0.7110 -0.0019 -0.2313
 5732UDC     C363044   9.005  17.473  19.510 -0.0591  0.1910  0.2942
 5732UDC     C463045   9.130  17.525  19.435  1.2542  1.1867  0.8220
 5732UDC     C563046   9.112  17.670  19.394  0.8905  0.6904  0.5554
 5732UDC     C663047   8.965  17.675  19.341 -0.6824  0.2067  0.8408
 5732UDC     C763048   8.875  17.793  19.377 -0.0136 -0.4166  1.4237
 5732UDC     C863049   8.859  17.781  19.528 -0.9913 -0.0071  0.9304
 5732UDC     C963050   8.748  17.866  19.570 -0.1273 -0.0566  0.8139
 5732UDC    C1063051   8.638  17.848  19.465  0.4575  0.0676 -0.1160
 5732UDC    C1163052   8.518  17.949  19.468  0.5732 -0.1716 -1.6574
 5733UDC     C163053   1.164  19.212   6.343  0.5081  1.3939 -0.0449
 5733UDC     C263054   1.023  19.163   6.333 -0.4857 -0.9959  0.7545
 5733UDC     C363055   0.895  19.246   6.360 -0.2540 -0.0310 -0.0940
 5733UDC     C463056   0.766  19.162   6.347 -0.8556  0.8143 -0.0075
 5733UDC     C563057   0.776  19.066   6.226  0.7208 -0.6984 -0.1249
 5733UDC     C663058   0.653  18.969   6.229 -0.0677 -1.0738 -0.3946
 5733UDC     C763059   0.691  18.831   6.303  1.1530 -0.6380  0.8047
 5733UDC     C863060   0.748  18.714   6.217 -0.3215  0.0137 -0.4444
 5733UDC     C963061   0.658  18.718   6.089  0.5762 -0.5205  0.4435
 5733UDC    C1063062   0.672  18.598   5.990  0.3982  0.6644 -0.5285
 5733UDC    C1163063   0.652  18.655   5.843 -0.0471  0.7168  0.3456
 5734UDC     C163064   6.199   8.944  11.219 -0.3534  0.2195  0.3502
 5734UDC     C263065   6.056   8.918  11.161  0.1766  0.5595  0.3422
 5734UDC     C363066   6.073   8.844  11.026 -0.4238 -0.5245  0.7708
 5734UDC     C463067   6.080   8.941  10.903  0.5188  1.5338  0.1351
 5734UDC     C563068   5.997   9.065  10.917 -0.1232 -0.2904  0.1490
 5734UDC     C663069   5.984   9.152  10.790 -0.7118  0.7840 -0.0495
 5734UDC     C763070   5.887   9.271  10.795  0.7011  0.1214  1.1102
 5734UDC     C863071   5.879   9.335  10.654 -0.5550 -0.7723  0.2799
 5734UDC     C963072   5.874   9.484  10.657  0.0653 -0.6569  0.3283
 5734UDC    C1063073   6.002   9.561  10.691 -0.2421  0.1393  0.4322
 5734UDC    C1163074   6.001   9.713  10.723 -0.1941 -0.2287 -0.1548
 5735UDC     C163075   9.337   1.907  15.914  0.9232 -0.9828  1.0487
 5735UDC     C263076   9.225   1.887  16.012  0.3656 -0.6731  0.7078
 5735UDC     C363077   9.244   1.889  16.165  0.7387 -0.0592 -0.6787
 5735UDC     C463078   9.148   1.818  16.263 -0.3431 -1.2680  0.3817
 5735UDC     C563079   9.014   1.895  16.283  0.9068 -1.0950 -0.4528
 5735UDC     C663080   8.893   1.855  16.189 -0.8217  0.5136  0.2436
 5735UDC     C763081   8.891   1.706  16.144 -0.2383 -0.2819  0.2955
 5735UDC     C863082   8.752   1.649  16.103  0.3701 -0.4302  1.7946
 5735UDC     C963083   8.774   1.508  16.068 -1.0426  0.0890  0.5828
 5735UDC    C1063084   8.723   1.461  15.926  1.4065 -0.8115 -0.3850
 5735UDC    C1163085   8.768   1.322  15.894  0.2033  0.6692  0.5254
 5736UDC     C163086   2.698   7.965   2.272  0.4089  1.7703 -1.0126
 5736UDC     C263087   2.629   7.930   2.141  0.2567 -0.0744  0.9275
 5736UDC     C363088   2.546   8.048   2.093  0.5506  0.0836 -0.2140
 5736UDC     C463089   2.424   8.066   2.181  0.7036  0.5341  0.0908
 5736UDC     C563090   2.349   8.204   2.138 -0.3927  0.2379 -0.1023
 5736UDC     C663091   2.240   8.258   2.235  0.0856 -0.0170  1.0636
 5736UDC     C763092   2.264   8.256   2.387  0.9029 -0.1704 -1.3218
 5736UDC     C863093   2.151   8.308   2.470  1.1159 -0.8275  0.6032
 5736UDC     C963094   2.180   8.326   2.618 -0.9222  0.6273  0.2501
 5736UDC    C1063095   2.276   8.440   2.647 -0.9752  0.0127 -0.0225
 5736UDC    C1163096   2.212   8.548   2.729  0.0837 -0.1928  0.0776
 5737UDC     C163097  16.564   5.022  19.860  0.3055  0.0109 -0.4844
 5737UDC     C263098  16.588   5.177  19.856  0.1824  0.3880 -0.1273
 5737UDC     C363099  16.451   5.244  19.857 -0.6781  0.6779  0.6756
 5737UDC     C463100  16.453   5.403  19.886  0.8541 -0.8649 -0.4355
 5737UDC     C563101  16.560   5.487  19.811 -0.5980  0.2577 -0.6681
 5737UDC     C663102  16.556   5.638  19.825  0.6576  0.2089  0.6547
 5737UDC     C763103  16.679   5.711  19.773 -0.5816  0.0725  0.0621
 5737UDC     C863104  16.711   5.868  19.769  0.5880  0.2841  0.9144
 5737UDC     C963105  16.751   5.933  19.629 -0.9801  0.7530 -1.3149
 5737UDC    C1063106  16.733   6.083  19.626  0.2194  0.4067 -0.8629
 5737UDC    C1163107  16.594   6.122  19.665  0.9982 -0.5103  0.1300
 5738UDC     C163108   9.354  15.317   1.218 -0.6247  0.5522 -0.3117
 5738UDC     C263109   9.242  15.353   1.118 -0.6754 -0.8614  1.1628
 5738UDC     C363110   9.102  15.381   1.175 -0.1576  0.4638  0.6721
 5738UDC     C463111   9.023  15.259   1.233  0.3898 -0.0040  0.2004
 5738UDC     C563112   8.898  15.317   1.299 -0.4019 -0.5333  0.4207
 5738UDC     C663113   8.811  15.387   1.195 -0.0357  1.5037  1.0375
 5738UDC     C763114   8.679  15.460   1.225 -0.4860 -0.0447 -0.0562
 5738UDC     C863115   8.626  15.543   1.115 -0.0017  1.2294  1.2657
 5738UDC     C963116   8.650  15.476   0.974  0.1939  0.0844 -0.5155
 5738UDC    C1063117   8.644  15.585   0.859  0.4799 -0.1560 -0.6132
 5738UDC    C1163118   8.694  15.552   0.719  0.8937 -0.3006 -0.1462
 5739UDC     C163119  10.321  13.701   3.768 -0.1279  0.9164 -0.0283
 5739UDC     C263120  10.325  13.557   3.821  0.0856 -0.0203  0.5652
 5739UDC     C363121  10.458  13.540   3.899 -0.5189 -0.2932 -0.3002
 5739UDC     C463122  10.465  13.417   3.990  0.5464 -0.8064  0.6573
 5739UDC     C563123  10.567  13.424   4.100  0.2537  0.0550 -1.2599
 5739UDC     C663124  10.553  13.547   4.187 -0.0626  0.0062  0.2902
 5739UDC     C763125  10.684  13.570   4.272  0.4023  0.4668  0.9063
 5739UDC     C863126  10.737  13.448   4.348 -0.3495 -0.5488 -0.1591
 5739UDC     C963127  10.861  13.483   4.438 -0.1224 -0.5588 -1.4935
 5739UDC    C1063128  10.976  13.389   4.478  0.5713 -0.0218 -1.2496
 5739UDC    C1163129  10.945  13.232   4.466 -0.6151  1.5967  0.2525
 5740UDC     C163130  11.460  12.571  10.769  0.2207  0.6018  0.0661
 5740UDC     C263131  11.355  12.508  10.856 -0.0074  0.2323 -0.0206
 5740UDC     C363132  11.387  12.436  10.985  0.3513 -0.7959  0.5418
 5740UDC     C463133  11.468  12.547  11.062 -0.9931 -0.0522  0.5296
 5740UDC     C563134  11.382  12.616  11.167  0.8813 -0.5026  0.6590
 5740UDC     C663135  11.467  12.719  11.246 -0.8024 -1.0925 -0.6083
 5740UDC     C763136  11.425  12.760  11.389 -1.0086  0.0390  0.2868
 5740UDC     C863137  11.498  12.891  11.423  1.4002 -1.8834  0.1468
 5740UDC     C963138  11.485  12.935  11.575  0.3653 -0.0510  0.0028
 5740UDC    C1063139  11.514  13.078  11.629 -0.7899 -0.4417 -0.4325
 5740UDC    C1163140  11.476  13.208  11.562  0.6184  1.0913  0.0985
 5741UDC     C163141  16.487  16.241  11.613  0.2452 -0.3960  0.8621
 5741UDC     C263142  16.630  16.193  11.631  0.6692 -0.1664 -0.6157
 5741UDC     C363143  16.723  16.262  11.731  0.4383  0.6999 -0.3367
 5741UDC     C463144  16.728  16.203  11.870  0.8893  0.6768 -0.0637
 5741UDC     C563145  16.804  16.274  11.991  0.3190 -1.1392 -0.6321
 5741UDC     C663146  16.841  16.164  12.086  0.8847  0.5987  0.3965
 5741UDC     C763147  16.935  16.163  12.209  0.6604 -0.2871  0.0067
 5741UDC     C863148  17.022  16.285  12.170  0.3006 -0.7774  0.1179
 5741UDC     C963149  17.104  16.315  12.295 -0.1689  0.6635 -0.1062
 5741UDC    C1063150  17.229  16.231  12.287 -0.1396  1.0255 -0.6541
 5741UDC    C1163151  17.328  16.258  12.399 -0.4768  0.1722  0.4478
 5742UDC     C163152  17.628  14.126  18.271 -0.6253 -0.2368  0.6118
 5742UDC     C263153  17.623  14.185  18.407  0.9825 -0.5661 -1.0218
 5742UDC     C363154  17.586  14.062  18.495 -0.4509  0.3667  0.6323
 5742UDC     C463155  17.449  14.016  18.452  0.6967 -0.9545 -0.3614
 5742UDC     C563156  17.351  14.092  18.545 -0.9170  0.1113  0.3295
 5742UDC     C663157  17.205  14.054  18.524 -0.3257 -0.5243  0.4315
 5742UDC     C763158  17.191  13.929  18.608  0.9379  0.5143 -0.2129
 5742UDC     C863159  17.072  13.845  18.559 -0.8621  0.9616 -0.2225
 5742UDC     C963160  17.001  13.885  18.428 -1.0040 -0.6904  0.0807
 5742UDC    C1063161  17.078  13.848  18.296 -0.4160  0.6566 -0.2966
 5742UDC    C1163162  17.020  13.916  18.170 -0.0161 -0.7660 -0.9077
 5743UDC     C163163   8.614  11.964  16.254 -0.6944  0.0976 -0.2610
 5743UDC     C263164   8.645  11.858  16.147  0.6931  0.7933  0.6712
 5743UDC     C363165   8.602  11.888  16.002 -1.0311 -0.4455 -0.0393
 5743UDC     C463166   8.457  11.920  15.970 -0.3580 -0.1737  0.5127
 5743UDC     C563167   8.444  11.956  15.823 -0.4532 -0.1219 -0.7917
 5743UDC     C663168   8.523  12.085  15.784 -0.9909 -0.3477 -0.6704
 5743UDC     C763169   8.484  12.138  15.642 -0.4125  0.1179  0.7974
 5743UDC     C863170   8.573  12.247  15.583 -0.4031 -0.2561  0.7629
 5743UDC     C963171   8.559  12.268  15.425  0.4940  0.4886  0.2408
 5743UDC    C1063172   8.660  12.177  15.350  0.3544 -0.3694  0.2145
 5743UDC    C1163173   8.692  12.223  15.209  0.2003  0.4929 -0.5975
 5744UDC     C163174  19.609  16.549   8.004 -1.0021 -0.5451 -0.7499
 5744UDC     C263175  19.624  16.468   8.132  1.5216  0.0263 -0.0898
 5744UDC     C363176  19.701  16.531   8.245 -0.3221 -0.0650  0.5162
 5744UDC     C463177  19.800  16.651   8.216  0.7786  0.0740 -0.1557
 5744UDC     C563178  19.940  16.630   8.160 -0.0100 -0.2073  0.1061
 5744UDC     C663179  20.003  16.736   8.076 -0.7638  0.5141 -0.0995
 5744UDC     C763180  20.161  16.753   8.088 -0.2806  1.3141 -0.8631
 5744UDC     C863181  20.205  16.758   8.233  0.0981  0.0267 -0.3663
 5744UDC     C963182  20.351  16.813   8.261  0.6446  0.1388  0.9644
 5744UDC    C1063183  20.336  16.961   8.207 -0.0187  1.1656 -0.0869
 5744UDC    C1163184  20.249  17.054   8.293 -0.8825 -0.0789 -0.0149
 5745UDC     C163185   7.416  15.087   0.760  1.3978 -0.0519 -0.1553
 5745UDC     C263186   7.361  15.189   0.655  0.1779  0.4154 -0.0951
 5745UDC     C363187   7.307  15.112   0.527 -0.5009 -0.4497  0.1269
 5745UDC     C463188   7.249  15.210   0.427  0.0212 -0.4440  0.6861
 5745UDC     C563189   7.330  15.265   0.304  0.4056 -0.0539  0.0206
 5745UDC     C663190   7.388  15.169   0.193 -0.3657 -0.0671  0.8321
 5745UDC     C763191   7.444  15.236   0.062  0.6512  0.3075 -0.2999
 5745UDC     C863192   7.594  15.225   0.047  0.5819  0.8214 -0.9930
 5745UDC     C963193   7.677  15.263   0.175  1.1390 -0.1913 -0.5713
 5745UDC    C1063194   7.830  15.231   0.179  1.1344  0.1828  0.0765
 5745UDC    C1163195   7.887  15.288   0.314  0.2075  0.1362  0.3744
 5746UDC     C163196  18.809  14.164   3.823  0.5529 -0.0202  0.1207
 5746UDC     C263197  18.770  14.309   3.835  0.4643  0.3299 -0.4996
 5746UDC     C363198  18.855  14.405   3.923 -0.1423  0.8656 -0.6471
 5746UDC     C463199  19.007  14.413   3.895  0.2420 -0.2801  0.1774
 5746UDC     C563200  19.057  14.543   3.821  0.4791 -0.2010  0.1819
 5746UDC     C663201  19.207  14.542   3.846  0.2653  1.0368  0.7456
 5746UDC     C763202  19.284  14.671   3.806 -0.3694 -0.3878 -0.2733
 5746UDC     C863203  19.257  14.801   3.883 -0.0411  0.3408  0.5311
 5746UDC     C963204  19.362  14.898   3.840 -0.1687  0.7806  0.1778
 5746UDC    C1063205  19.347  15.032   3.922 -0.8304  1.4638  0.0107
 5746UDC    C1163206  19.436  15.161   3.905 -0.4489  0.4233  0.4167
 5747UDC     C163207   2.334  11.615   0.754  0.1281  0.1294 -0.2533
 5747UDC     C263208   2.361  11.743   0.843 -0.0111  0.2614  0.2367
 5747UDC     C363209   2.460  11.836   0.768 -0.0877  0.5222 -0.8699
 5747UDC     C463210   2.453  11.977   0.837 -0.8754 -0.7523  0.9166
 5747UDC     C563211   2.529  12.087   0.757 -0.3249  1.2806  0.3640
 5747UDC     C663212   2.492  12.236   0.795 -0.2219  0.5912  0.0074
 5747UDC     C763213   2.346  12.268   0.825  1.1634  0.7513  0.5620
 5747UDC     C863214   2.287  12.396   0.758  0.1756  0.1303  0.3901
 5747UDC     C963215   2.134  12.392   0.768 -0.5456 -0.2921 -1.0330
 5747UDC    C1063216   2.068  12.531   0.760  0.6331  0.6822  0.3384
 5747UDC    C1163217   2.080  12.609   0.634 -0.2612 -0.2152  0.0076
 5748UDC     C163218   3.837  16.861  18.541 -0.9787  1.0998 -0.9169
 5748UDC     C263219   3.842  16.939  18.670 -1.2476 -1.1540 -0.5594
 5748UDC     C363220   3.890  17.084  18.656  0.4806  0.3656 -0.2287
 5748UDC     C463221   4.047  17.077  18.654  0.1640  0.2380 -0.0374
 5748UDC     C563222   4.116  17.209  18.686 -0.4469 -0.4809 -0.3089
 5748UDC     C663223   4.266  17.168  18.697  1.8026 -0.7580 -0.1738
 5748UDC     C763224   4.326  17.179  18.833  0.6754  0.2216 -0.0293
 5748UDC     C863225   4.365  17.042  18.884  0.2303 -0.1795 -0.3317
 5748UDC     C963226   4.428  17.053  19.022  0.8849  0.3343  1.0749
 5748UDC    C1063227   4.447  16.900  19.067  0.0123  0.5875  0.2134
 5748UDC    C1163228   4.560  16.827  18.993 -0.1904 -0.2432  0.9458
 5749UDC     C163229   1.581  18.693   4.077 -1.9825  0.0198 -0.1503
 5749UDC     C263230   1.468  18.748   3.987  1.1039 -0.5451 -1.0898
 5749UDC     C363231   1.409  18.635   3.902  0.1342 -0.5330  1.2554
 5749UDC     C463232   1.300  18.563   3.969 -0.1639 -0.7596 -0.9133
 5749UDC     C563233   1.275  18.420   3.923 -0.1471  0.5736 -1.3632
 5749UDC     C663234   1.130  18.381   3.908 -0.7600  1.1410 -0.0061
 5749UDC     C763235   1.083  18.234   3.898 -0.2263 -0.2731  0.4795
 5749UDC     C863236   0.943  18.239   3.843  0.5285  0.2586 -1.1710
 5749UDC     C963237   0.889  18.125   3.757  1.0744 -0.2308  0.7736
 5749UDC    C1063238   0.740  18.145   3.721  0.4942  0.2207  0.0202
 5749UDC    C1163239   0.696  18.019   3.644 -0.2419 -0.4640  0.1258
 5750UDC     C163240   9.896  17.143  14.974 -1.0676  0.0146  0.0487
 5750UDC     C263241   9.753  17.076  14.952  0.2340 -0.0996  0.6909
 5750UDC     C363242   9.731  16.978  14.844 -0.0122 -0.4699  0.1130
 5750UDC     C463243   9.805  16.844  14.854  0.7776  0.5211  0.5348
 5750UDC     C563244   9.794  16.765  14.725  1.7664 -1.1474 -0.6419
 5750UDC     C663245   9.855  16.626  14.743 -0.0794 -0.8863  0.4010
 5750UDC     C763246   9.891  16.584  14.890  0.3674  0.1216  0.4962
 5750UDC     C863247   9.966  16.451  14.899  0.2254 -0.9851  0.1264
 5750UDC     C963248   9.902  16.314  14.867 -0.7316 -1.1079 -0.5944
 5750UDC    C1063249   9.842  16.246  14.995 -0.3645  0.4408  0.4503
 5750UDC    C1163250   9.924  16.218  15.124 -0.6791  1.0848 -0.1363
 5751UDC     C163251   3.583  19.604  11.133  1.2412  0.4986 -0.6707
 5751UDC     C263252   3.451  19.677  11.110 -0.5581  0.3947 -0.1918
 5751UDC     C363253   3.325  19.588  11.131  0.3338 -0.3367  0.1451
 5751UDC     C463254   3.197  19.597  11.043  0.9364  0.3380 -0.0331
 5751UDC     C563255   3.224  19.533  10.905 -0.8225 -0.3884 -0.7098
 5751UDC     C663256   3.091  19.490  10.833 -0.4766  0.0604  0.1620
 5751UDC     C763257   3.096  19.463  10.684 -0.2779 -0.2432  0.6488
 5751UDC     C863258   2.966  19.440  10.597  0.3715 -0.2837  0.2656
 5751UDC     C963259   2.861  19.553  10.590  0.2409 -0.4301 -0.2929
 5751UDC    C1063260   2.902  19.638  10.468  0.4146 -0.4249 -0.3848
 5751UDC    C1163261   2.808  19.754  10.440 -0.4410  0.6667 -0.2839
 5752UDC     C163262   8.640  15.142   8.900  0.7637  0.1175  1.2142
 5752UDC     C263263   8.664  15.185   9.047  0.8628 -0.1577  0.9363
 5752UDC     C363264   8.560  15.306   9.063  1.5763 -0.0663 -0.2312
 5752UDC     C463265   8.563  15.397   9.190  0.5993 -0.5223 -0.0246
 5752UDC     C563266   8.523  15.539   9.167  0.9382 -0.4784  0.7489
 5752UDC     C663267   8.615  15.568   9.049 -0.3592 -0.4643 -0.7691
 5752UDC     C763268   8.589  15.705   8.978  0.0881 -0.4581 -0.1891
 5752UDC     C863269   8.465  15.705   8.893 -0.9735 -0.8397  0.3396
 5752UDC     C963270   8.457  15.799   8.771 -0.3668  0.3437 -0.0648
 5752UDC    C1063271   8.433  15.947   8.783  0.2741  0.2270 -1.3942
 5752UDC    C1163272   8.444  16.015   8.920  0.4260  0.4954 -0.4719
 5753UDC     C163273   0.524  15.459   4.953 -0.5515 -0.3715  0.1021
 5753UDC     C263274   0.641  15.431   5.047  0.4465  0.3679 -0.0422
 5753UDC     C363275   0.613  15.307   5.106  0.5263  0.2120 -0.4627
 5753UDC     C463276   0.733  15.259   5.177 -1.2554 -0.4735 -1.3530
 5753UDC     C563277   0.781  15.117   5.150  1.8219 -0.0284  0.8830
 5753UDC     C663278   0.911  15.093   5.076 -0.8959 -0.3053 -0.9624
 5753UDC     C763279   1.019  15.183   5.131 -0.0916  0.7939  1.8795
 5753UDC     C863280   1.062  15.152   5.273  0.1616 -0.0488 -0.7313
 5753UDC     C963281   1.098  15.000   5.296 -0.3115 -1.5574  0.8790
 5753UDC    C1063282   1.106  14.974   5.450  1.3090  1.2085 -0.4656
 5753UDC    C1163283   1.228  14.904   5.519  0.9914  0.4063 -0.0749
 5754UDC     C163284   1.945  13.375   2.926  1.4326 -1.1231  0.5477
 5754UDC     C263285   1.998  13.240   2.954  0.6285  0.8862 -0.8260
 5754UDC     C363286   2.139  13.241   3.016  0.0004  0.8875 -0.4745
 5754UDC     C463287   2.257  13.228   2.925 -0.3139 -0.0857  0.1147
 5754UDC     C563288   2.400  13.226   2.990  0.1986 -0.4880  0.2620
 5754UDC     C663289   2.475  13.334   2.918  0.5890  0.1744  0.6827
 5754UDC     C763290   2.589  13.391   3.001  0.2549  0.0889  0.0404
 5754UDC     C863291   2.665  13.501   2.924  0.2674  1.3592  0.3176
 5754UDC     C963292   2.808  13.522   2.975 -0.3014 -0.8629  0.8195
 5754UDC    C1063293   2.826  13.592   3.107 -0.2387 -0.1100  0.7053
 5754UDC    C1163294   2.979  13.590   3.142  0.3154  1.2590  0.7290
 5755UDC     C163295  12.735  16.837   1.072  0.5842  0.7596 -0.7756
 5755UDC     C263296  12.706  16.921   0.938  0.8434 -0.3272  0.0498
 5755UDC     C363297  12.571  16.880   0.871 -0.1530  0.0675  0.2606
 5755UDC     C463298  12.477  16.923   0.982  0.0338 -0.7128  1.3188
 5755UDC     C563299  12.329  16.894   0.976  0.0197 -0.9528 -0.1193
 5755UDC     C663300  12.252  16.911   1.105  0.5322  0.3993 -0.2052
 5755UDC     C763301  12.105  16.915   1.077  0.2246  0.9621  0.0921
 5755UDC     C863302  12.044  16.811   1.173 -0.1607 -0.6024 -0.0397
 5755UDC     C963303  12.119  16.846   1.307  0.8085  0.7815 -0.1496
 5755UDC    C1063304  12.127  16.720   1.395 -0.2245 -0.4814 -0.4911
 5755UDC    C1163305  12.238  16.624   1.383  0.7748 -0.0306  1.2832
 5756UDC     C163306  18.385   9.531   9.730 -0.6077  0.3452  1.4568
 5756UDC     C263307  18.287   9.564   9.837  1.0064 -0.1269  0.6398
 5756UDC     C363308  18.265   9.452   9.943  0.2309  0.0872  0.1815
 5756UDC     C463309  18.165   9.338   9.903 -0.6957  0.5615 -0.0399
 5756UDC     C563310  18.162   9.216   9.997 -0.8688 -0.3573  1.1005
 5756UDC     C663311  18.075   9.097   9.963  0.1116 -0.4712  0.1468
 5756UDC     C763312  18.123   9.043   9.831  0.5212 -0.9367 -0.3054
 5756UDC     C863313  18.020   8.928   9.800  0.3249 -0.7057 -1.2559
 5756UDC     C963314  18.054   8.787   9.860  0.2189  0.2884  0.2760
 5756UDC    C1063315  18.035   8.674   9.756  0.2615 -0.3118 -0.0485
 5756UDC    C1163316  17.916   8.575   9.778 -0.5051 -0.1745 -0.3509
 5757UDC     C163317  17.578  12.190  18.990 -0.1186  0.8092 -1.3004
 5757UDC     C263318  17.515  12.074  18.911  1.2324  0.9026  0.0272
 5757UDC     C363319  17.568  12.066  18.767 -0.6308  0.0888  0.4852
 5757UDC     C463320  17.486  11.974  18.684  0.5048  0.0750  0.4081
 5757UDC     C563321  17.542  11.880  18.582 -0.1150  0.1017  1.2392
 5757UDC     C663322  17.444  11.801  18.482 -0.2620  0.4114  0.2613
 5757UDC     C763323  17.500  11.722  18.365  0.5760 -0.0398 -0.7013
 5757UDC     C863324  17.626  11.788  18.316 -0.2573 -0.0380 -0.5910
 5757UDC     C963325  17.687  11.718  18.201 -0.2496 -0.5695  0.5810
 5757UDC    C1063326  17.664  11.780  18.063  0.5397 -0.8379  0.0906
 5757UDC    C1163327  17.755  11.725  17.950 -0.2350  0.2462  0.6882
 5758UDC     C163328   6.122  11.223  15.398 -0.1248 -0.6127 -0.1989
 5758UDC     C263329   6.137  11.344  15.307 -0.7534 -0.1843  0.2943
 5758UDC     C363330   6.037  11.455  15.293  0.2945 -0.2484 -0.8505
 5758UDC     C463331   6.035  11.539  15.419 -0.2083 -0.9821 -0.2413
 5758UDC     C563332   5.887  11.569  15.455  0.2391 -0.2510  0.2074
 5758UDC     C663333   5.876  11.703  15.527 -0.2683  0.2640  0.5379
 5758UDC     C763334   5.929  11.699  15.669  0.9126 -0.4877 -0.2187
 5758UDC     C863335   5.893  11.827  15.754  0.0677 -0.2776  0.0139
 5758UDC     C963336   5.740  11.855  15.752 -1.1197  0.4677 -0.1822
 5758UDC    C1063337   5.698  11.853  15.900  1.0418  0.1693  0.1458
 5758UDC    C1163338   5.788  11.959  15.968  1.6194 -0.6975 -0.5077
 5759UDC     C163339  12.662  11.232   5.911  0.3547  1.1400  1.0246
 5759UDC     C263340  12.773  11.330   5.903 -1.1888 -0.6598 -0.6356
 5759UDC     C363341  12.909  11.271   5.864  1.5619  0.6840  0.8701
 5759UDC     C463342  12.887  11.184   5.739  0.5635  0.1933  0.1142
 5759UDC     C563343  12.997  11.099   5.678  0.6637  0.0209 -0.4620
 5759UDC     C663344  12.980  11.039   5.540 -0.0166  0.3077  0.6718
 5759UDC     C763345  13.112  10.971   5.500 -1.3010 -0.2666  0.0394
 5759UDC     C863346  13.084  10.870   5.380 -0.2456 -0.9661 -0.0797
 5759UDC     C963347  12.992  10.907   5.262  0.4115 -0.5734 -0.1300
 5759UDC    C1063348  13.019  10.856   5.114  0.4810 -0.9837 -0.8382
 5759UDC    C1163349  12.888  10.867   5.018 -0.2457  0.2802  0.4621
 5760UDC     C163350  13.046   6.221  17.112 -0.5989 -0.2226 -0.9518
 5760UDC     C263351  12.933   6.201  17.209 -0.5309 -0.1667 -0.6013
 5760UDC     C363352  12.894   6.337  17.279  0.7427 -0.4750 -0.4361
 5760UDC     C463353  13.026   6.398  17.316 -0.9177 -0.6820  0.3052
 5760UDC     C563354  13.011   6.526  17.400  0.1990 -0.4948 -0.0466
 5760UDC     C663355  13.143   6.605  17.383 -0.0929  0.2486 -0.7465
 5760UDC     C763356  13.264   6.527  17.441  0.3385 -0.0130 -0.1901
 5760UDC     C863357  13.281   6.504  17.585 -0.1696  0.9134 -0.5104
 5760UDC     C963358  13.354   6.374  17.622 -0.8308  0.1710  0.2454
 5760UDC    C1063359  13.368   6.358  17.768  0.6704 -0.5441  0.8363
 5760UDC    C1163360  13.244   6.298  17.825  0.2196  0.1221  0.3019
 5761UDC     C163361  13.948   8.047   1.884 -1.2167  0.5248  0.3697
 5761UDC     C263362  14.057   8.047   2.001 -0.3299 -0.4945 -1.2116
 5761UDC     C363363  14.136   8.181   1.993 -0.7876 -0.4161  0.0339
 5761UDC     C463364  14.130   8.247   2.132 -0.1272 -0.7506  0.6681
 5761UDC     C563365  14.236   8.178   2.213  0.5331  0.2100 -0.9379
 5761UDC     C663366  14.217   8.218   2.365 -1.8651 -0.0488 -0.1683
 5761UDC     C763367  14.131   8.346   2.400  0.5898  0.7487 -0.4428
 5761UDC     C863368  14.152   8.369   2.552  0.2705  0.5169 -0.3186
 5761UDC     C963369  14.086   8.266   2.644  0.4353 -0.4829 -0.1742
 5761UDC    C1063370  14.105   8.281   2.793  0.2957 -0.2925  0.8256
 5761UDC    C1163371  14.197   8.183   2.861 -0.7177 -0.3783  0.9521
 5762UDC     C163372  14.035  18.667   8.024  0.3604 -0.2659  0.5411
 5762UDC     C263373  14.163  18.598   7.978  0.3103 -1.2225 -0.3873
 5762UDC     C363374  14.170  18.595   7.822  0.5401 -0.3762 -0.0958
 5762UDC     C463375  14.294  18.523   7.764 -1.0412 -0.4201  0.0028
 5762UDC     C563376  14.434  18.561   7.820 -0.6931  0.6386  0.1070
 5762UDC     C663377  14.489  18.699   7.781  0.4279  1.0997  0.0813
 5762UDC     C763378  14.616  18.722   7.866  0.2023 -0.9901 -0.1973
 5762UDC     C863379  14.705  18.852   7.833  0.1493  0.4935 -0.6858
 5762UDC     C963380  14.759  18.868   7.690 -0.1509  0.2078  0.4066
 5762UDC    C1063381  14.701  18.992   7.624  0.4186  0.5762 -0.0488
 5762UDC    C1163382  14.700  19.112   7.725 -0.7494  0.2629 -0.6976
 5763UDC     C163383   3.423   3.682   6.468 -0.2501  1.1039 -0.4461
 5763UDC     C263384   3.425   3.817   6.402  0.3380  0.1499  0.1093
 5763UDC     C363385   3.323   3.910   6.472  0.4217 -0.4363  0.4112
 5763UDC     C463386   3.300   4.057   6.420 -0.7721  0.3912 -0.6963
 5763UDC     C563387   3.424   4.146   6.410 -0.1755  1.0053 -0.0466
 5763UDC     C663388   3.398   4.284   6.343  0.2083 -1.0572 -0.2289
 5763UDC     C763389   3.512   4.377   6.304  0.4291  0.2019  0.4506
 5763UDC     C863390   3.452   4.497   6.232  0.8452 -0.7144 -0.3305
 5763UDC     C963391   3.536   4.611   6.191  0.2053 -0.8434  0.0672
 5763UDC    C1063392   3.457   4.726   6.136 -0.1262 -0.9854  0.0109
 5763UDC    C1163393   3.359   4.786   6.238  0.6022 -0.5695 -0.3715
 5764UDC     C163394   1.405  18.331  14.117 -0.1344 -1.1069  0.0882
 5764UDC     C263395   1.322  18.230  14.031  0.3577  0.2524 -0.0371
 5764UDC     C363396   1.268  18.286  13.899 -0.2477 -0.2601 -0.1613
 5764UDC     C463397   1.142  18.386  13.907 -0.0868  0.9044  0.3903
 5764UDC     C563398   1.023  18.289  13.925  0.4163  0.1305  0.0182
 5764UDC     C663399   0.879  18.347  13.909 -0.4573  0.9414  0.9200
 5764UDC     C763400   0.867  18.431  13.784  0.5908  0.5260 -0.2441
 5764UDC     C863401   0.712  18.435  13.748  0.6180 -0.3417 -1.3170
 5764UDC     C963402   0.642  18.296  13.749  0.7085  0.0213 -0.2580
 5764UDC    C1063403   0.498  18.312  13.697 -0.0000  1.0619  0.9033
 5764UDC    C1163404   0.507  18.310  13.545 -0.7955  0.4623 -1.6513
 5765UDC     C163405  17.812  16.529   9.672  0.3725  1.3712  0.9720
 5765UDC     C263406  17.826  16.662   9.746 -0.0125  0.5043  0.4960
 5765UDC     C363407  17.729  16.696   9.860  0.1076  0.8878  0.4037
 5765UDC     C463408  17.747  16.818   9.948 -0.7478  0.2545  0.6634
 5765UDC     C563409  17.615  16.901   9.955  0.5180 -0.0107  0.8782
 5765UDC     C663410  17.622  17.049   9.998 -0.0230  0.6787  0.4300
 5765UDC     C763411  17.475  17.104  10.022 -0.1839 -0.3651  0.2945
 5765UDC     C863412  17.364  17.047   9.931  0.4175 -0.3865 -0.5176
 5765UDC     C963413  17.230  17.043  10.004 -0.1373  1.0563 -0.8829
 5765UDC    C1063414  17.125  17.158   9.986  0.1242  0.6595 -0.1246
 5765UDC    C1163415  17.125  17.197   9.836  1.0211  0.0042 -0.6970
 5766UDC     C163416  15.438  19.896   6.243  1.0034  0.0315 -0.8636
 5766UDC     C263417  15.408  20.027   6.314  0.6070  0.1493 -0.6027
 5766UDC     C363418  15.271  20.050   6.386  0.2585  0.1324 -0.6291
 5766UDC     C463419  15.245  20.204   6.398  0.0069  0.2720  0.7936
 5766UDC     C563420  15.117  20.248   6.462 -0.0425 -0.5060 -0.2449
 5766UDC     C663421  15.005  20.205   6.367  0.2269 -0.0431 -1.2484
 5766UDC     C763422  15.013  20.272   6.228  0.5979 -0.7790 -0.3656
 5766UDC     C863423  14.871  20.290   6.164 -0.3909 -0.8128  0.6977
 5766UDC     C963424  14.872  20.376   6.035  0.1795 -0.2686  0.0912
 5766UDC    C1063425  14.751  20.471   6.029  0.4387  0.7519 -0.3951
 5766UDC    C1163426  14.758  20.581   5.928 -0.0618 -0.7498  0.5581
 5767UDC     C163427  15.270  11.151   2.976 -0.0299 -0.1193  0.8969
 5767UDC     C263428  15.167  11.122   2.858 -0.4545  0.5327 -0.6503
 5767UDC     C363429  15.035  11.057   2.909  0.5107 -0.2375  1.0969
 5767UDC     C463430  14.945  11.156   2.994 -0.5762 -1.5441  0.2260
 5767UDC     C563431  14.877  11.257   2.913 -0.5369  0.4497  0.9072
 5767UDC     C663432  14.822  11.367   3.009 -1.0676  0.0007 -0.3225
 5767UDC     C763433  14.930  11.468   3.051 -0.4563 -0.8906 -0.1222
 5767UDC     C863434  14.888  11.616   3.027  0.0943 -0.0291 -0.9366
 5767UDC     C963435  14.758  11.633   3.097 -0.2668 -0.1364 -0.3979
 5767UDC    C1063436  14.727  11.763   3.178 -0.6499  0.6481  0.2424
 5767UDC    C1163437  14.617  11.764   3.289  0.2420  0.2888 -0.2344
 5768UDC     C163438   1.342   4.691   3.824 -0.2143  0.0018 -0.1650
 5768UDC     C263439   1.368   4.845   3.820  0.1646  0.3816  1.5218
 5768UDC     C363440   1.354   4.889   3.962 -0.5211 -0.0525 -0.9672
 5768UDC     C463441   1.471   4.835   4.043 -0.1114  0.3767  0.0559
 5768UDC     C563442   1.475   4.873   4.191 -0.5408  0.1271 -0.0312
 5768UDC     C663443   1.586   4.802   4.274 -0.8214  0.6852  1.2224
 5768UDC     C763444   1.602   4.647   4.283 -0.2387  0.2718  0.1435
 5768UDC     C863445   1.485   4.570   4.345 -0.1414 -0.8958 -0.6888
 5768UDC     C963446   1.497   4.420   4.376  0.0523  0.2290  0.5800
 5768UDC    C1063447   1.526   4.335   4.248  0.8173 -0.3233 -0.5538
 5768UDC    C1163448   1.524   4.190   4.279 -0.1937 -0.0930 -0.6233
 5769UDC     C163449  17.111   2.499   1.145 -0.3847 -0.3195  0.5766
 5769UDC     C263450  17.040   2.460   1.013  0.0004  0.3234  0.4157
 5769UDC     C363451  16.896   2.491   0.984  0.6737  0.5771 -0.2143
 5769UDC     C463452  16.819   2.394   0.889 -0.2328  1.2071  0.4080
 5769UDC     C563453  16.696   2.466   0.822  0.0322  0.1773 -0.3055
 5769UDC     C663454  16.626   2.391   0.705 -0.0555 -0.7316 -0.2729
 5769UDC     C763455  16.705   2.314   0.601  1.1575 -0.3485  0.0678
 5769UDC     C863456  16.767   2.406   0.493  0.3194  0.2772 -1.0435
 5769UDC     C963457  16.661   2.500   0.424 -0.4246  0.1784 -0.3507
 5769UDC    C1063458  16.731   2.620   0.362 -0.2034 -0.2368  0.0801
 5769UDC    C1163459  16.635   2.728   0.301 -1.4874 -0.4956 -0.3426
 5770UDC     C163460  14.888  19.865   4.721  0.4744 -0.0771 -0.0367
 5770UDC     C263461  14.849  19.893   4.869  0.2182  0.5612 -0.0286
 5770UDC     C363462  14.855  20.045   4.900  0.7216 -0.9930  0.0814
 5770UDC     C463463  14.752  20.108   4.802  0.6007 -0.1250 -1.0660
 5770UDC     C563464  14.744  20.252   4.859 -0.4065  0.9694 -0.8970
 5770UDC     C663465  14.873  20.324   4.821 -0.2995  0.8940  0.7239
 5770UDC     C763466  14.917  20.326   4.679  0.4331  0.9769  0.3419
 5770UDC     C863467  14.815  20.389   4.586  0.0950 -0.9920  0.8714
 5770UDC     C963468  14.825  20.368   4.430  0.3668 -0.2366  0.4012
 5770UDC    C1063469  14.711  20.432   4.349 -0.2446  0.2780 -0.5453
 5770UDC    C1163470  14.703  20.571   4.416 -0.0619  0.6414  0.3386
 5771UDC     C163471   3.053   5.763  10.518  0.8557 -0.3806 -0.9805
 5771UDC     C263472   3.017   5.627  10.578 -0.0704  0.0520 -0.9927
 5771UDC     C363473   2.930   5.641  10.708 -0.6488 -0.0848 -0.3437
 5771UDC     C463474   2.924   5.512  10.789  0.6278 -1.2937  0.4391
 5771UDC     C563475   2.823   5.402  10.753  0.9340  0.0304 -0.3729
 5771UDC     C663476   2.876   5.263  10.797  0.1556 -0.5164 -0.1708
 5771UDC     C763477   2.850   5.150  10.703  0.6353 -0.5627  0.2939
 5771UDC     C863478   2.704   5.112  10.651  0.3432  0.3462  0.5970
 5771UDC     C963479   2.716   4.980  10.567  0.0050 -0.1929  0.0801
 5771UDC    C1063480   2.592   4.899  10.533 -0.7310 -0.1249 -0.1129
 5771UDC    C1163481   2.630   4.794  10.427  1.0753 -0.1816 -0.9156
 5772UDC     C163482   7.129  16.251  14.396  0.8195 -0.1929 -0.5868
 5772UDC     C263483   7.276  16.276  14.343  0.2798  0.3010 -0.1333
 5772UDC     C363484   7.381  16.320  14.449 -1.4597 -1.0520  0.4019
 5772UDC     C463485   7.403  16.227  14.569 -0.2724  0.1534  0.4433
 5772UDC     C563486   7.554  16.201  14.600  0.9124 -0.5171  0.1837
 5772UDC     C663487   7.583  16.073  14.511  0.2295 -0.8689 -1.0961
 5772UDC     C763488   7.728  16.053  14.492  0.6976 -1.6461 -0.2141
 5772UDC     C863489   7.801  16.182  14.441  0.2330  0.9958 -0.7834
 5772UDC     C963490   7.946  16.159  14.480 -0.1105 -0.3204  0.0393
 5772UDC    C1063491   8.028  16.290  14.465  0.5260 -0.0604  0.2271
 5772UDC    C1163492   8.184  16.292  14.472  0.1894  0.7958  0.0831
 5773UDC     C163493  15.188  19.037   8.019 -0.2046  0.3121  0.4579
 5773UDC     C263494  15.153  19.031   8.169 -0.0275 -0.1185  0.5447
 5773UDC     C363495  15.108  18.889   8.201  0.7889  0.1634  0.6825
 5773UDC     C463496  15.064  18.850   8.345  0.8352  0.5403 -0.4954
 5773UDC     C563497  15.049  18.698   8.372 -0.0079 -0.2139 -0.2973
 5773UDC     C663498  14.960  18.667   8.500 -0.1644  0.2816 -0.2854
 5773UDC     C763499  14.824  18.733   8.482 -0.5247  0.1357  0.5643
 5773UDC     C863500  14.720  18.689   8.372 -0.0701  1.1211  0.1990
 5773UDC     C963501  14.614  18.794   8.349  0.3296  0.5343  0.5638
 5773UDC    C1063502  14.502  18.735   8.259 -0.7831  0.0903 -0.4533
 5773UDC    C1163503  14.363  18.776   8.319  0.1717  0.3243 -0.4446
 5774UDC     C163504   2.440   3.650  10.577 -0.4594  0.5733 -0.0887
 5774UDC     C263505   2.449   3.715  10.715 -0.0614 -0.6543 -0.1147
 5774UDC     C363506   2.312   3.764  10.776 -0.6878 -0.2111  0.5061
 5774UDC     C463507   2.276   3.737  10.923 -0.1425 -0.1656 -0.7461
 5774UDC     C563508   2.135   3.796  10.956  0.7761  1.0178 -1.1521
 5774UDC     C663509   2.014   3.702  10.952  0.2806  0.1100 -0.0225
 5774UDC     C763510   1.874   3.764  10.982  0.4806 -0.5958 -0.0691
 5774UDC     C863511   1.779   3.817  10.870 -0.6125  0.3895  0.5459
 5774UDC     C963512   1.778   3.712  10.758 -0.3782  0.7857  0.4071
 5774UDC    C1063513   1.696   3.586  10.806  0.7957 -0.2745  0.5046
 5774UDC    C1163514   1.735   3.453  10.729  0.7938 -0.0420  0.3708
 5775UDC     C163515   8.771  18.191  11.900  0.5439 -0.1721 -0.1135
 5775UDC     C263516   8.904  18.231  11.826  0.5469  0.3609  0.3657
 5775UDC     C363517   9.027  18.251  11.918 -0.3057  0.2603 -0.8210
 5775UDC     C463518   9.168  18.285  11.848 -0.0294 -0.1354 -0.2220
 5775UDC     C563519   9.149  18.296  11.700  0.9269 -0.8188 -0.9725
 5775UDC     C663520   9.275  18.353  11.631 -1.0428  0.1968 -0.7229
 5775UDC     C763521   9.262  18.386  11.476  0.7028 -0.0401 -0.0993
 5775UDC     C863522   9.324  18.307  11.364  0.1653 -0.3192 -0.8860
 5775UDC     C963523   9.255  18.331  11.229  0.9211  0.2255  0.3032
 5775UDC    C1063524   9.324  18.267  11.110 -0.3514  0.3818 -0.1694
 5775UDC    C1163525   9.236  18.214  10.997 -0.3804  0.8391 -0.5227
 5776UDC     C163526  12.905   8.675  17.941  0.2203  0.2683 -0.2890
 5776UDC     C263527  13.038   8.717  18.003 -0.7914 -0.1975  0.6499
 5776UDC     C363528  13.086   8.857  17.968  0.4308 -0.6991  1.1294
 5776UDC     C463529  13.043   8.960  18.068 -1.3225  0.3100  0.7861
 5776UDC     C563530  13.100   9.110  18.055  0.2541  1.0847  0.4872
 5776UDC     C663531  13.043   9.223  18.151  0.0237  0.7594  0.5358
 5776UDC     C763532  12.896   9.252  18.147  0.1643 -0.1345  0.1512
 5776UDC     C863533  12.828   9.298  18.282 -0.3092 -0.5008 -0.1009
 5776UDC     C963534  12.681   9.287  18.293 -0.2535  0.9752 -0.4530
 5776UDC    C1063535  12.619   9.145  18.264 -0.0681 -0.4737 -0.2293
 5776UDC    C1163536  12.684   9.027  18.348  0.5766 -0.1289 -0.1086
 5777UDC     C163537   9.770  18.530  11.221  0.0672 -0.5770  0.0159
 5777UDC     C263538   9.701  18.585  11.089  0.3520 -0.7727  0.5285
 5777UDC     C363539   9.637  18.725  11.094  0.8273 -0.6580 -0.1735
 5777UDC     C463540   9.564  18.761  10.967  0.1635  0.6303 -0.6373
 5777UDC     C563541   9.446  18.662  10.947  0.5896 -0.0739  1.0133
 5777UDC     C663542   9.369  18.691  10.815 -0.1360  1.0472  0.1871
 5777UDC     C763543   9.252  18.601  10.788 -0.7835  0.2980  0.4910
 5777UDC     C863544   9.193  18.635  10.652  0.4841 -0.0904 -0.2587
 5777UDC     C963545   9.075  18.547  10.610  0.6176  0.3428 -0.0348
 5777UDC    C1063546   8.934  18.528  10.678 -1.0398 -0.4174  0.6122
 5777UDC    C1163547   8.822  18.456  10.610 -0.0196  0.6484 -0.3030
 5778UDC     C163548   8.577  11.161   2.935 -0.0783 -0.3240 -0.5688
 5778UDC     C263549   8.728  11.166   2.937 -0.0818  0.9208  0.7688
 5778UDC     C363550   8.788  11.029   2.981 -0.2111 -0.6020 -0.1633
 5778UDC     C463551   8.875  11.035   3.103 -0.6772  0.1058 -0.1509
 5778UDC     C563552   8.917  10.898   3.168 -0.7994 -0.3875 -0.1796
 5778UDC     C663553   9.020  10.931   3.270 -0.3116  0.8842 -0.3060
 5778UDC     C763554   9.099  10.801   3.302 -0.0803  0.1850 -0.5348
 5778UDC     C863555   9.232  10.813   3.382  0.1450 -0.3052 -0.0691
 5778UDC     C963556   9.316  10.676   3.394 -0.1583 -0.0969 -0.1827
 5778UDC    C1063557   9.373  10.622   3.266 -1.0141  0.9454  0.0155
 5778UDC    C1163558   9.493  10.528   3.265 -0.4828  0.0918  0.2983
 5779UDC     C163559   7.692   0.097   1.171  0.1180  0.7214  0.6966
 5779UDC     C263560   7.750   0.002   1.283  0.4494 -0.5844 -0.6800
 5779UDC     C363561   7.677  -0.140   1.273  0.4803  0.7457 -0.5323
 5779UDC     C463562   7.741  -0.246   1.375  0.7833  0.7026  0.9825
 5779UDC     C563563   7.663  -0.373   1.391  0.3083  0.3603  0.1554
 5779UDC     C663564   7.724  -0.463   1.497  0.3787 -0.0176 -0.8848
 5779UDC     C763565   7.634  -0.577   1.566  0.8631 -0.7711 -0.2002
 5779UDC     C863566   7.520  -0.524   1.659 -1.0569  0.1812 -0.0498
 5779UDC     C963567   7.550  -0.559   1.805  0.1856 -0.6442 -0.4293
 5779UDC    C1063568   7.441  -0.505   1.904  0.5629  0.3511  0.9303
 5779UDC    C1163569   7.498  -0.482   2.047  0.1049  0.3512 -0.6915
 5780UDC     C163570  18.645  19.645   7.700 -1.3713 -0.9433  0.1703
 5780UDC     C263571  18.501  19.649   7.647  0.8640 -0.6160 -0.1130
 5780UDC     C363572  18.436  19.787   7.644  0.2962  0.1620  0.6317
 5780UDC     C463573  18.412  19.843   7.786  0.5698  0.7973 -0.4389
 5780UDC     C563574  18.304  19.947   7.784 -0.0104  1.3446  0.4549
 5780UDC     C663575  18.309  20.021   7.920 -0.8487  0.6855  0.2648
 5780UDC     C763576  18.448  20.077   7.958  0.4140 -0.0764 -0.0917
 5780UDC     C863577  18.452  20.166   8.086 -1.1428  0.2893  0.6244
 5780UDC     C963578  18.313  20.223   8.114  0.1821 -0.6262  0.1503
 5780UDC    C1063579  18.314  20.352   8.200 -0.3683 -0.5781 -0.2203
 5780UDC    C1163580  18.178  20.423   8.211  0.9611 -0.2254  0.2278
 5781UDC     C163581  12.656  10.404  16.653  0.7201  0.7655  0.0632
 5781UDC     C263582  12.696  10.256  16.651  1.2723 -0.2932 -0.3628
 5781UDC     C363583  12.587  10.144  16.647  0.3481 -1.0915 -0.6064
 5781UDC     C463584  12.533  10.149  16.504 -0.2362  0.4166 -1.0503
 5781UDC     C563585  12.450  10.030  16.451 -0.1310  0.4403 -0.7948
 5781UDC     C663586  12.315   9.992  16.515 -0.3950 -0.6888  0.4361
 5781UDC     C763587  12.278   9.842  16.495  0.2281  0.1267 -0.0794
 5781UDC     C863588  12.243   9.819  16.349 -0.5544  0.3639  0.3043
 5781UDC     C963589  12.115   9.849  16.283  0.8462 -0.7659 -0.1158
 5781UDC    C1063590  12.093   9.826  16.130 -0.1537 -0.6245  0.5204
 5781UDC    C1163591  11.949   9.876  16.090  0.5343 -0.2327  0.7196
 5782UDC     C163592  11.353   2.725  13.105 -0.6667  0.3926 -0.1529
 5782UDC     C263593  11.404   2.845  13.018  0.6702 -0.7226 -0.5580
 5782UDC     C363594  11.469   2.943  13.117 -0.2428 -0.2249  0.7089
 5782UDC     C463595  11.601   2.872  13.170  1.1465 -0.3883  0.4652
 5782UDC     C563596  11.709   2.846  13.067  0.5005  0.4385 -0.4767
 5782UDC     C663597  11.772   2.979  13.013  0.9056 -0.1165 -0.1722
 5782UDC     C763598  11.830   2.961  12.874  0.4412  0.8223  0.8129
 5782UDC     C863599  11.725   2.941  12.759 -0.1084 -0.0526 -0.5356
 5782UDC     C963600  11.597   3.026  12.749 -0.9558 -0.1677  0.8520
 5782UDC    C1063601  11.520   3.052  12.612 -0.2998 -0.0242 -0.0974
 5782UDC    C1163602  11.609   3.148  12.532  0.5613 -0.4553  0.3767
 5783UDC     C163603   7.575  19.248   4.217 -0.4227 -1.3250  0.2249
 5783UDC     C263604   7.499  19.302   4.340  0.3546 -1.0455 -0.9455
 5783UDC     C363605   7.364  19.376   4.303 -0.8092 -0.0085  1.2322
 5783UDC     C463606   7.340  19.410   4.151 -0.1306 -0.3352 -0.4029
 5783UDC     C563607   7.193  19.451   4.101 -1.0551 -0.4911  0.9218
 5783UDC     C663608   7.162  19.483   3.955  0.1579  0.8711  1.7300
 5783UDC     C763609   7.214  19.616   3.890 -0.0632  0.6253 -0.0081
 5783UDC     C863610   7.188  19.752   3.954  0.1775 -0.4893 -1.1743
 5783UDC     C963611   7.033  19.797   3.949  0.3836  0.8678 -1.5331
 5783UDC    C1063612   6.975  19.814   3.813 -0.0888 -0.4109  0.4415
 5783UDC    C1163613   7.045  19.924   3.721  0.9531 -0.7108  0.5132
 5784UDC     C163614  13.825   6.203  16.531  1.0540 -0.6879 -0.3567
 5784UDC     C263615  13.736   6.304  16.454 -0.0943 -0.5726 -0.9724
 5784UDC     C363616  13.692   6.266  16.313 -1.2361 -0.3536  0.8661
 5784UDC     C463617  13.804   6.225  16.214  0.0749 -0.8065  0.8054
 5784UDC     C563618  13.747   6.136  16.106  1.0579 -1.1083 -0.2087
 5784UDC     C663619  13.832   6.144  15.977  0.9668 -1.2661 -0.1218
 5784UDC     C763620  13.809   6.265  15.881  0.1446  0.5791  0.4352
 5784UDC     C863621  13.907   6.273  15.765  1.0496  0.0819  0.2667
 5784UDC     C963622  13.901   6.423  15.722  0.4467 -0.4331 -0.3866
 5784UDC    C1063623  14.027   6.472  15.645 -0.1847 -0.7889  0.1949
 5784UDC    C1163624  13.999   6.613  15.583 -0.9205 -0.8910  0.4071
 5785UDC     C163625   3.785   9.318   1.695  0.9264 -0.4846 -0.0319
 5785UDC     C263626   3.842   9.447   1.618  0.8459 -0.0597  0.2620
 5785UDC     C363627   3.734   9.504   1.523 -0.6836 -0.7302  0.2126
 5785UDC     C463628   3.706   9.419   1.407  0.0156  0.1679  0.2150
 5785UDC     C563629   3.587   9.470   1.324  0.1189 -1.3951  0.1780
 5785UDC     C663630   3.561   9.399   1.188 -0.0390  1.2445 -0.5048
 5785UDC     C763631   3.650   9.420   1.065  0.0328 -0.2778  0.1445
 5785UDC     C863632   3.627   9.304   0.958  0.2163 -0.2373  0.4630
 5785UDC     C963633   3.650   9.336   0.807  0.2370  0.4903 -0.2238
 5785UDC    C1063634   3.797   9.313   0.766  0.2287  0.6259 -0.0523
 5785UDC    C1163635   3.807   9.358   0.622 -0.1303 -0.6245 -1.6510
 5786UDC     C163636  18.906   5.544  15.725  0.4311  0.0820 -0.0968
 5786UDC     C263637  18.822   5.440  15.648 -0.5080 -0.0309  0.4339
 5786UDC     C363638  18.903   5.319  15.591  0.0995  0.9002  0.3494
 5786UDC     C463639  18.809   5.202  15.547 -0.7048 -0.2439  0.2733
 5786UDC     C563640  18.878   5.069  15.502 -0.7561 -0.3419  0.7874
 5786UDC     C663641  18.857   5.040  15.353  0.2018  1.3230 -0.1974
 5786UDC     C763642  18.715   4.999  15.301  0.1804 -0.8544 -0.5352
 5786UDC     C863643  18.663   4.862  15.342  0.2433  0.1508  0.2659
 5786UDC     C963644  18.537   4.846  15.262  0.5899 -0.2023 -0.0423
 5786UDC    C1063645  18.439   4.958  15.304  0.2706  0.2012 -0.4287
 5786UDC    C1163646  18.315   4.977  15.221  1.1277 -0.2854 -0.7498
 5787UDC     C163647  14.162  11.409   3.596  0.3268 -0.0578 -0.7521
 5787UDC     C263648  14.222  11.492   3.717 -1.6271  0.5442 -0.4354
 5787UDC     C363649  14.154  11.444   3.852 -1.1920 -0.4455  0.2224
 5787UDC     C463650  14.219  11.510   3.981 -1.1410  0.1837  0.7861
 5787UDC     C563651  14.150  11.485   4.113  0.5692  0.7300  0.0819
 5787UDC     C663652  14.156  11.339   4.160 -0.4143 -0.0519 -0.3769
 5787UDC     C763653  14.133  11.331   4.312 -0.9336 -0.3150  0.9106
 5787UDC     C863654  14.158  11.187   4.360 -0.0443 -0.0694 -0.6224
 5787UDC     C963655  14.182  11.156   4.509  1.7886  0.8084  0.1477
 5787UDC    C1063656  14.083  11.045   4.544  0.2565 -1.1268 -1.0970
 5787UDC    C1163657  13.929  11.071   4.567 -0.2160  0.3166 -0.2775
 5788UDC     C163658  12.909   8.433  13.874 -0.3513 -0.1590  0.5645
 5788UDC     C263659  12.756   8.447  13.892  0.5973  0.0419  0.1605
 5788UDC     C363660  12.681   8.403  13.761 -1.0356  0.1547  0.2690
 5788UDC     C463661  12.527   8.395  13.751  0.8275  0.0664  1.0126
 5788UDC     C563662  12.482   8.366  13.607  0.9450 -0.1255 -0.1901
 5788UDC     C663663  12.482   8.470  13.494 -0.5783 -0.2897 -0.1929
 5788UDC     C763664  12.446   8.420  13.356 -0.3598 -0.7013 -0.5218
 5788UDC     C863665  12.292   8.419  13.346  0.2150  0.5384  0.6897
 5788UDC     C963666  12.222   8.417  13.208  0.3809 -1.1426 -0.6972
 5788UDC    C1063667  12.172   8.288  13.145 -1.1719  0.9091 -0.1637
 5788UDC    C1163668  12.116   8.331  13.012 -0.5574  0.1665 -0.8171
 5789UDC     C163669   0.268  13.957  10.772 -0.1642 -0.5422 -0.7341
 5789UDC     C263670   0.215  14.111  10.767 -0.4623  0.0029 -0.4095
 5789UDC     C363671   0.092  14.143  10.866 -0.7473  0.6196  0.4604
 5789UDC     C463672   0.035  14.020  10.943  0.0664 -0.7042  0.2831
 5789UDC     C563673  -0.084  14.040  11.033  0.4914 -0.7290 -1.2182
 5789UDC     C663674  -0.026  14.055  11.171 -0.3542  0.0438 -0.1208
 5789UDC     C763675  -0.130  14.092  11.283 -0.2931  0.5731  0.2840
 5789UDC     C863676  -0.119  14.002  11.401 -0.0240  0.1190 -0.0677
 5789UDC     C963677  -0.058  14.067  11.531  0.4579  0.3554 -0.5045
 5789UDC    C1063678   0.044  14.181  11.501 -0.1286  0.6558 -0.3335
 5789UDC    C1163679   0.056  14.297  11.604  0.6024 -0.5458  0.5119
 5790UDC     C163680  15.040   1.795  13.376 -0.3757  0.5762 -0.6982
 5790UDC     C263681  15.018   1.684  13.481  0.3241  0.7113  0.2624
 5790UDC     C363682  15.050   1.722  13.626 -0.8218  0.2167  0.1324
 5790UDC     C463683  15.022   1.622  13.733  0.0619  0.2833 -0.2984
 5790UDC     C563684  15.047   1.668  13.880  0.3859 -0.6116 -0.6238
 5790UDC     C663685  14.951   1.577  13.968  0.4989 -0.3282  0.1215
 5790UDC     C763686  14.829   1.656  14.022  0.7641 -0.4319 -0.3044
 5790UDC     C863687  14.736   1.569  14.109  0.2257 -0.5276  1.4846
 5790UDC     C963688  14.600   1.637  14.141  0.3792  0.0906 -0.9318
 5790UDC    C1063689  14.531   1.583  14.267  0.3738  0.5017 -0.8454
 5790UDC    C1163690  14.646   1.558  14.373 -0.4109 -0.5856  0.5282
 5791UDC     C163691  19.026  13.349  15.570 -0.3713 -1.2559  0.0658
 5791UDC     C263692  19.043  13.402  15.716 -0.2453  1.1600 -0.0634
 5791UDC     C363693  18.948  13.523  15.732  0.0005  0.8777 -0.4524
 5791UDC     C463694  18.916  13.595  15.862  0.1495  0.9835  1.7224
 5791UDC     C563695  19.026  13.699  15.901 -0.6083 -1.0891 -0.0622
 5791UDC     C663696  19.093  13.766  15.780  0.4713 -0.6683 -0.1574
 5791UDC     C763697  19.161  13.896  15.818  0.6676 -0.3772 -0.2429
 5791UDC     C863698  19.290  13.847  15.877 -0.4441 -0.1862 -1.0752
 5791UDC     C963699  19.384  13.961  15.924 -0.5033 -0.7784  0.0236
 5791UDC    C1063700  19.432  14.045  15.797  0.3095  0.3087 -0.6704
 5791UDC    C1163701  19.491  13.961  15.681 -0.8455  0.6075  0.5098
 5792UDC     C163702  15.920  16.802   2.884  0.3653 -0.9257 -0.6857
 5792UDC     C263703  16.007  16.716   2.967  0.6884  0.0075 -0.1749
 5792UDC     C363704  15.945  16.686   3.103  1.4231 -0.6661 -0.2930
 5792UDC     C463705  16.026  16.624   3.214  0.2063 -0.2265 -0.6321
 5792UDC     C563706  16.111  16.728   3.295 -0.0738  0.2946 -0.8749
 5792UDC     C663707  16.218  16.688   3.401  0.1702  0.4338 -0.0269
 5792UDC     C763708  16.329  16.597   3.341  0.4342 -0.1966  0.0282
 5792UDC     C863709  16.401  16.653   3.215 -0.1717  0.2652 -0.5471
 5792UDC     C963710  16.535  16.576   3.188  0.0785 -0.9862  0.8506
 5792UDC    C1063711  16.618  16.644   3.078  0.0674  0.7632  0.1930
 5792UDC    C1163712  16.673  16.790   3.116  0.2918  0.4380  0.3026
 5793UDC     C163713  15.967  11.105   4.128 -0.8269  0.6605 -0.0055
 5793UDC     C263714  16.024  10.970   4.188  0.9466  0.4541  0.2001
 5793UDC     C363715  16.177  10.944   4.182  0.9594 -0.3144 -0.0868
 5793UDC     C463716  16.239  10.965   4.319 -0.2117 -0.4735 -0.3907
 5793UDC     C563717  16.166  10.869   4.416  0.2652  0.5495  0.5441
 5793UDC     C663718  16.207  10.726   4.381 -0.5657  0.0207 -1.3399
 5793UDC     C763719  16.144  10.627   4.486 -0.7328  0.1888 -0.9168
 5793UDC     C863720  16.155  10.478   4.469  0.9463 -0.1114 -0.2484
 5793UDC     C963721  16.079  10.444   4.336 -0.4949 -0.2098  0.1823
 5793UDC    C1063722  16.078  10.298   4.308 -0.4172  0.6632  0.7000
 5793UDC    C1163723  16.211  10.228   4.264 -0.0768 -0.4942  1.2659
 5794UDC     C163724   3.299  14.351  18.868 -1.2310 -0.9461 -0.1669
 5794UDC     C263725   3.172  14.347  18.945  0.7657 -0.6737 -0.0073
 5794UDC     C363726   3.205  14.283  19.080  0.7446  1.4148  1.0729
 5794UDC     C463727   3.339  14.351  19.118  0.4661  0.5466  1.0324
 5794UDC     C563728   3.397  14.252  19.220 -0.7089 -0.3371  0.0385
 5794UDC     C663729   3.440  14.318  19.352 -0.2043 -0.6613  0.3466
 5794UDC     C763730   3.569  14.401  19.331 -0.3198 -0.3173  0.0746
 5794UDC     C863731   3.696  14.316  19.316  0.1982 -0.9974 -0.4227
 5794UDC     C963732   3.823  14.406  19.292 -0.5630 -0.2224  0.2644
 5794UDC    C1063733   3.959  14.337  19.241  0.0151 -0.2271 -1.2943
 5794UDC    C1163734   4.098  14.396  19.239 -1.0361  1.3347  0.7332
 5795UDC     C163735  13.693  18.376  14.695  0.3980  0.5503  0.2582
 5795UDC     C263736  13.714  18.377  14.848  0.1709 -0.3590 -0.1169
 5795UDC     C363737  13.708  18.520  14.908 -0.1007  0.0056 -0.4920
 5795UDC     C463738  13.695  18.527  15.061 -0.6093  0.7860 -0.8106
 5795UDC     C563739  13.801  18.470  15.152 -0.6359  0.0525 -0.1231
 5795UDC     C663740  13.736  18.412  15.278 -0.0632 -0.2467 -0.1363
 5795UDC     C763741  13.820  18.398  15.406  0.8276 -0.0555  0.1029
 5795UDC     C863742  13.925  18.288  15.390  0.3349  0.4619  0.4528
 5795UDC     C963743  13.988  18.193  15.496  0.0779  0.4135  0.4076
 5795UDC    C1063744  14.098  18.091  15.461  0.1686  0.7632  0.7050
 5795UDC    C1163745  14.225  18.159  15.409 -0.8247 -0.1424 -0.7250
 5796UDC     C163746  19.149  19.923  17.933  0.1588 -0.5442 -0.3542
 5796UDC     C263747  19.276  19.886  17.859 -0.0558 -0.2060  0.5856
 5796UDC     C363748  19.388  19.953  17.928  0.7912  0.3356  0.2878
 5796UDC     C463749  19.473  20.043  17.839  0.3093 -0.3561  0.7067
 5796UDC     C563750  19.596  20.110  17.898 -0.1609 -0.3132 -0.2162
 5796UDC     C663751  19.684  20.027  17.994 -1.4896  0.8342  0.0476
 5796UDC     C763752  19.804  20.094  18.060  0.3809 -0.8983  0.6233
 5796UDC     C863753  19.878  20.001  18.168  0.3237  1.0407  0.4330
 5796UDC     C963754  19.982  20.079  18.244 -0.2717  0.1068 -0.7223
 5796UDC    C1063755  20.112  20.083  18.171 -0.2947 -0.2900 -0.5419
 5796UDC    C1163756  20.216  19.968  18.184 -0.7706  0.8948 -0.0053
 5797UDC     C163757   1.181   9.125  19.924  0.1598  0.6338  0.2693
 5797UDC     C263758   1.295   9.147  19.826 -0.8859  0.3283  0.1433
 5797UDC     C363759   1.241   9.103  19.693 -0.5930 -0.3969  0.7408
 5797UDC     C463760   1.307   9.133  19.554  0.2121 -0.9503 -0.5690
 5797UDC     C563761   1.448   9.071  19.580 -0.1155  0.2778 -0.2436
 5797UDC     C663762   1.447   8.921  19.608 -1.2946  0.0295 -0.3044
 5797UDC     C763763   1.566   8.859  19.673 -0.1290 -0.2046 -0.5459
 5797UDC     C863764   1.556   8.716  19.719 -0.7795 -0.0637 -0.1555
 5797UDC     C963765   1.665   8.680  19.815 -0.9777  0.6084 -0.8882
 5797UDC    C1063766   1.616   8.543  19.869  0.2686  0.7221  0.8091
 5797UDC    C1163767   1.733   8.447  19.842  0.3316 -0.5733 -0.4291
 5798UDC     C163768  11.741  13.483   2.674 -0.2922  0.4161  1.4842
 5798UDC     C263769  11.781  13.434   2.817  0.4821 -0.6159  0.3941
 5798UDC     C363770  11.760  13.280   2.817  0.4849 -0.6085 -0.7139
 5798UDC     C463771  11.872  13.199   2.765 -0.7992 -0.6362  0.6157
 5798UDC     C563772  11.832  13.056   2.746  1.0408  1.1506  0.5925
 5798UDC     C663773  11.951  12.966   2.706  0.2879  0.8982 -0.7277
 5798UDC     C763774  11.905  12.827   2.652 -0.1055  0.1036 -0.5339
 5798UDC     C863775  11.821  12.745   2.748 -0.0759 -0.2441  0.7878
 5798UDC     C963776  11.780  12.616   2.670  0.4715 -0.4401  0.5512
 5798UDC    C1063777  11.663  12.621   2.566 -0.2905  0.3137 -0.6646
 5798UDC    C1163778  11.541  12.538   2.615  1.0675  0.1115 -0.3801
 5799UDC     C163779  17.936   2.759   2.468 -0.8476  0.1916  0.3515
 5799UDC     C263780  17.898   2.730   2.616 -0.1787 -0.0133  0.9756
 5799UDC     C363781  17.762   2.675   2.653  0.2984  0.0398 -0.3013
 5799UDC     C463782  17.750   2.523   2.607  0.0021 -0.1937 -0.0386
 5799UDC     C563783  17.644   2.443   2.674  1.0053 -0.1188 -0.6344
 5799UDC     C663784  17.641   2.288   2.647  0.1393 -0.0299 -0.3085
 5799UDC     C763785  17.570   2.222   2.769  0.1623  0.5920  1.5964
 5799UDC     C863786  17.567   2.059   2.755  0.0780 -0.8471 -0.4341
 5799UDC     C963787  17.572   1.997   2.891  0.7422 -0.2044  0.0541
 5799UDC    C1063788  17.450   1.917   2.945  0.5949  0.1915  0.1555
 5799UDC    C1163789  17.471   1.842   3.078  1.5643 -0.1630  1.2384
 5800UDC     C163790  13.868   8.744   8.353  0.2583 -0.2587 -0.7356
 5800UDC     C263791  13.747   8.714   8.439 -0.4444  0.0508 -0.0877
 5800UDC     C363792  13.694   8.570   8.424 -0.7293 -0.7527  0.3968
 5800UDC     C463793  13.540   8.570   8.468 -1.4959 -0.5526 -0.6169
 5800UDC     C563794  13.501   8.446   8.548  0.3409  0.5417  0.5725
 5800UDC     C663795  13.420   8.468   8.676 -0.5289 -1.0766 -0.7946
 5800UDC     C763796  13.497   8.537   8.787  0.0512 -0.3991  0.7797
 5800UDC     C863797  13.577   8.441   8.879 -0.6881  0.6566  0.0636
 5800UDC     C963798  13.681   8.539   8.933 -0.9431 -0.5087  0.0508
 5800UDC    C1063799  13.639   8.646   9.039 -0.8909 -0.7859 -0.3431
 5800UDC    C1163800  13.726   8.766   9.068 -0.6939 -1.0998  0.1085
 5801UDC     C163801   8.440  14.865   2.169 -0.0949 -0.2619 -0.6423
 5801UDC     C263802   8.421  15.013   2.171 -0.5494 -0.3419 -0.6369
 5801UDC     C363803   8.507  15.082   2.270 -0.3204  0.1620 -0.6875
 5801UDC     C463804   8.511  15.237   2.266 -0.5097  0.6949 -0.9502
 5801UDC     C563805   8.618  15.302   2.365 -0.3003  0.4761 -0.6451
 5801UDC     C663806   8.744  15.222   2.383  0.0024  0.8696  0.2400
 5801UDC     C763807   8.797  15.273   2.519  1.1785  0.5896 -0.4601
 5801UDC     C863808   8.916  15.181   2.553  0.1784  0.9979 -0.2158
 5801UDC     C963809   9.000  15.229   2.670 -1.5960 -0.2479  1.0334
 5801UDC    C1063810   9.147  15.192   2.638  0.6477 -0.0917 -0.4033
 5801UDC    C1163811   9.175  15.043   2.628  0.2452  0.3931 -0.1359
 5802UDC     C163812  12.106   6.395   3.288 -0.1948 -0.2003 -0.0947
 5802UDC     C263813  12.123   6.363   3.136  0.5690 -0.0191  0.3476
 5802UDC     C363814  12.261   6.311   3.112 -1.4398  0.4052  0.0508
 5802UDC     C463815  12.275   6.246   2.974 -0.9305 -0.0218 -0.1142
 5802UDC     C563816  12.200   6.117   2.948 -0.1056 -0.5638  0.9300
 5802UDC     C663817  12.210   6.040   2.808 -0.1153 -0.4535  1.2678
 5802UDC     C763818  12.165   5.888   2.808 -0.0948  0.7558 -0.2472
 5802UDC     C863819  12.183   5.823   2.673  0.0966 -0.1543  0.4871
 5802UDC     C963820  12.189   5.667   2.687  0.0260 -0.0959 -0.8790
 5802UDC    C1063821  12.281   5.607   2.789 -0.4399 -0.8001  0.7398
 5802UDC    C1163822  12.312   5.478   2.725  0.8059 -0.7136  0.2202
 5803UDC     C163823   3.143  16.636   9.436 -1.8209  0.4121 -0.5910
 5803UDC     C263824   3.073  16.506   9.385 -1.1790 -0.4308 -0.2952
 5803UDC     C363825   2.972  16.499   9.269 -0.1285 -0.6891  0.4588
 5803UDC     C463826   2.906  16.356   9.272 -0.1419 -1.0521 -0.3350
 5803UDC     C563827   3.021  16.247   9.266 -0.1320  0.7139 -0.3139
 5803UDC     C663828   2.977  16.102   9.260 -0.2497  0.4052 -0.5540
 5803UDC     C763829   2.918  16.044   9.388 -0.2098  1.2917  0.8603
 5803UDC     C863830   2.894  15.895   9.383 -0.4635  0.3303 -0.7252
 5803UDC     C963831   2.785  15.854   9.488  0.3449  0.1403  0.1074
 5803UDC    C1063832   2.768  15.700   9.507  0.3450 -0.1050 -0.2313
 5803UDC    C1163833   2.647  15.652   9.586  0.9258 -0.5297  0.2561
 5804UDC     C163834  18.259   1.314  17.275 -0.0871 -0.3554  0.3744
 5804UDC     C263835  18.110   1.355  17.299 -0.1162 -0.9674 -0.3011
 5804UDC     C363836  18.032   1.272  17.401  0.6585  0.0471 -0.8263
 5804UDC     C463837  18.038   1.321  17.549 -0.3290 -0.1865 -0.4631
 5804UDC     C563838  17.908   1.290  17.631 -0.7842 -0.1246  0.1874
 5804UDC     C663839  17.913   1.141  17.633  0.4333 -0.6089  0.5742
 5804UDC     C763840  17.844   1.110  17.759  0.1538 -1.0254 -0.3338
 5804UDC     C863841  17.948   1.081  17.863  0.3051 -0.1695 -0.9299
 5804UDC     C963842  17.925   0.949  17.939 -0.4376  0.4608  0.4882
 5804UDC    C1063843  17.792   0.938  18.014 -0.1656 -0.5938 -0.1660
 5804UDC    C1163844  17.760   0.806  18.086  0.2968 -0.1957  0.8607
 5805UDC     C163845  12.636   8.622  16.163 -0.0118  0.5156 -0.7138
 5805UDC     C263846  12.721   8.716  16.251 -0.1499  0.8371  0.1750
 5805UDC     C363847  12.756   8.671  16.396 -0.8221  0.5950  0.2752
 5805UDC     C463848  12.852   8.768  16.450 -0.5030 -0.2741 -0.2961
 5805UDC     C563849  12.915   8.735  16.593 -0.7826  0.8913  0.9002
 5805UDC     C663850  12.810   8.757  16.699 -0.0073  0.1101  0.4235
 5805UDC     C763851  12.851   8.697  16.834 -0.0914  0.8706 -0.9957
 5805UDC     C863852  12.762   8.718  16.955 -0.2635 -0.5793 -0.6589
 5805UDC     C963853  12.672   8.604  16.989  0.7887 -0.1056 -0.4550
 5805UDC    C1063854  12.746   8.477  16.997  0.2933 -0.5025  0.9435
 5805UDC    C1163855  12.656   8.351  17.009 -0.2460  0.2493 -0.7730
 5806UDC     C163856  14.373   1.898   5.523 -0.2423 -0.8041  0.1388
 5806UDC     C263857  14.450   1.768   5.506  0.8231 -0.5911  0.2928
 5806UDC     C363858  14.461   1.719   5.361  0.5518 -0.9228  0.5143
 5806UDC     C463859  14.585   1.632   5.341 -0.1350 -0.3292 -0.0014
 5806UDC     C563860  14.596   1.592   5.194  0.7307 -0.2633 -0.3136
 5806UDC     C663861  14.528   1.459   5.171 -0.1088 -0.4693 -0.0888
 5806UDC     C763862  14.553   1.395   5.029 -0.9211 -0.2449 -0.6947
 5806UDC     C863863  14.484   1.256   5.020 -0.5378  0.5047 -0.6572
 5806UDC     C963864  14.452   1.213   4.879  0.6171  0.2949  0.1556
 5806UDC    C1063865  14.504   1.071   4.842  0.9280  0.4975  0.2822
 5806UDC    C1163866  14.659   1.048   4.837 -0.0429  0.3875  0.1543
 5807UDC     C163867  18.997   8.837   3.552  1.2146 -0.4211 -0.4915
 5807UDC     C263868  18.998   8.827   3.713  0.5430 -0.3170 -0.2618
 5807UDC     C363869  19.042   8.942   3.801 -0.3433  0.8262  0.1856
 5807UDC     C463870  19.149   9.031   3.742  0.7424 -0.3028 -0.6619
 5807UDC     C563871  19.194   9.135   3.849 -0.9862  0.2981 -0.2740
 5807UDC     C663872  19.337   9.192   3.827 -0.5244 -0.2545  0.7762
 5807UDC     C763873  19.473   9.115   3.808 -0.5408 -0.2804 -0.5268
 5807UDC     C863874  19.585   9.189   3.895 -0.4837 -0.5027  0.7235
 5807UDC     C963875  19.633   9.337   3.876 -0.0702 -0.7886 -0.0561
 5807UDC    C1063876  19.735   9.373   3.981  0.4831 -0.0826  0.0798
 5807UDC    C1163877  19.675   9.407   4.122 -1.3846  0.4535  0.5053
 5808UDC     C163878  16.996   9.410  17.180  0.1891  0.1057  0.0807
 5808UDC     C263879  16.837   9.408  17.177  0.1927 -1.1561 -1.5318
 5808UDC     C363880  16.753   9.281  17.218  0.8113 -0.5305 -0.0364
 5808UDC     C463881  16.723   9.259  17.368 -0.4121  0.0285 -0.0130
 5808UDC     C563882  16.605   9.166  17.399 -0.1833  0.9189  0.2182
 5808UDC     C663883  16.546   9.213  17.535 -0.9715 -0.4804 -0.1066
 5808UDC     C763884  16.458   9.103  17.600  0.1396  1.0022 -0.0508
 5808UDC     C863885  16.537   8.975  17.641 -0.0649 -0.7665 -0.0460
 5808UDC     C963886  16.453   8.854  17.690  0.1911 -0.7057  0.3892
 5808UDC    C1063887  16.522   8.723  17.740 -0.4119 -0.7762  0.8363
 5808UDC    C1163888  16.607   8.650  17.639 -0.4973 -0.0095  0.6742
 5809UDC     C163889   7.439  13.121   8.647  0.8772 -0.6902 -0.4123
 5809UDC     C263890   7.461  13.138   8.800  0.6681  0.0647 -0.3013
 5809UDC     C363891   7.347  13.189   8.893 -0.1252 -0.1993  0.6854
 5809UDC     C463892   7.406  13.199   9.032 -0.1482 -0.1399  0.5887
 5809UDC     C563893   7.322  13.245   9.148 -0.3895 -0.2579 -0.4594
 5809UDC     C663894   7.401  13.279   9.275  0.3447  0.6759 -0.3008
 5809UDC     C763895   7.352  13.238   9.417 -0.2105 -0.7249 -0.3012
 5809UDC     C863896   7.453  13.232   9.538  0.2104  0.4286  0.3804
 5809UDC     C963897   7.462  13.376   9.586 -0.1819  0.3287  0.4912
 5809UDC    C1063898   7.510  13.393   9.730  0.1692  0.1177 -0.7639
 5809UDC    C1163899   7.506  13.535   9.791 -0.8498 -0.2871  0.8084
 5810UDC     C163900   7.433  11.208   3.333 -0.3521 -0.5781 -0.1936
 5810UDC     C263901   7.312  11.117   3.368 -1.1157  0.3396 -0.5824
 5810UDC     C363902   7.201  11.194   3.445  0.9396 -1.5242  0.8691
 5810UDC     C463903   7.120  11.102   3.533  0.4677 -0.3032 -0.3765
 5810UDC     C563904   7.063  10.989   3.447  0.4230  1.4599 -0.6710
 5810UDC     C663905   6.942  10.930   3.527 -0.5987  0.2237 -0.4490
 5810UDC     C763906   6.828  10.858   3.450 -0.0513  0.4454 -0.1990
 5810UDC     C863907   6.709  10.814   3.538 -0.6245  0.7641  0.4794
 5810UDC     C963908   6.660  10.931   3.618  0.7207 -0.4880 -0.0805
 5810UDC    C1063909   6.514  10.916   3.676 -0.0671  0.0762 -0.8149
 5810UDC    C1163910   6.486  11.003   3.801  0.5604  0.2897  0.6199
 5811UDC     C163911   2.249   2.029   4.140 -0.0923 -0.2770 -0.2099
 5811UDC     C263912   2.319   1.897   4.184  1.0531  0.4210  0.8021
 5811UDC     C363913   2.447   1.889   4.099  0.6936  0.0547 -0.1114
 5811UDC     C463914   2.417   1.949   3.961  0.5097 -0.1133 -0.2859
 5811UDC     C563915   2.555   1.968   3.887 -0.3513  0.0734 -0.7819
 5811UDC     C663916   2.634   1.850   3.827 -0.0300  1.0804  0.1915
 5811UDC     C763917   2.769   1.907   3.791  0.1785 -0.7126 -0.1135
 5811UDC     C863918   2.843   1.912   3.923  1.4558 -0.4610  0.1305
 5811UDC     C963919   2.985   1.965   3.923  1.2747  0.0012  0.4328
 5811UDC    C1063920   3.031   1.976   4.072 -0.0180 -0.3831 -0.0289
 5811UDC    C1163921   3.164   2.046   4.094  0.3743  0.5367 -0.7453
 5812UDC     C163922  15.776   2.792   6.239 -0.4556 -0.3323 -0.2545
 5812UDC     C263923  15.899   2.891   6.217 -0.6948  0.5526 -0.0175
 5812UDC     C363924  15.906   2.949   6.074 -0.2480 -0.3002 -0.6453
 5812UDC     C463925  16.049   2.994   6.034  0.0809 -0.6379  0.2760
 5812UDC     C563926  16.061   2.999   5.875  0.0503 -0.6145 -0.8125
 5812UDC     C663927  16.057   2.860   5.813 -0.3341 -0.6964  0.0366
 5812UDC     C763928  15.991   2.871   5.670  0.2085 -0.6403 -0.2794
 5812UDC     C863929  16.052   2.932   5.539 -0.6462 -0.3279 -0.0922
 5812UDC     C963930  15.963   2.885   5.415 -0.2259 -0.0326 -0.9965
 5812UDC    C1063931  16.026   2.926   5.282 -0.0028 -0.2253 -0.1935
 5812UDC    C1163932  15.942   2.906   5.150  0.6995  0.5431 -0.1614
 5813UDC     C163933   0.896   5.481  15.474 -1.1648  0.1683 -0.1358
 5813UDC     C263934   0.787   5.572  15.414  0.4986 -0.0725  0.1667
 5813UDC     C363935   0.789   5.710  15.488 -0.1386  0.3327  0.5192
 5813UDC     C463936   0.707   5.807  15.399 -0.6084  0.1112  0.2520
 5813UDC     C563937   0.603   5.715  15.336  0.6960  0.5193 -0.0002
 5813UDC     C663938   0.483   5.779  15.273  0.9577 -0.5473 -0.5144
 5813UDC     C763939   0.337   5.720  15.303  0.0580 -0.6258  0.9135
 5813UDC     C863940   0.230   5.831  15.291 -1.3227  0.0113  0.6773
 5813UDC     C963941   0.077   5.806  15.288 -0.8989  0.3776  1.1651
 5813UDC    C1063942   0.000   5.931  15.283 -0.4026  0.1210  0.0510
 5813UDC    C1163943  -0.144   5.907  15.309 -0.0907  0.1550  0.3731
 5814UDC     C163944  11.176   4.021   4.681  0.2554 -0.2058 -0.1355
 5814UDC     C263945  11.111   4.165   4.691 -0.0569 -0.2170 -0.6496
 5814UDC     C363946  11.073   4.219   4.552 -0.4152 -0.4746  0.2364
 5814UDC     C463947  11.194   4.267   4.465  0.2993 -0.1073  0.5766
 5814UDC     C563948  11.143   4.330   4.329 -2.0222 -0.4115 -0.7405
 5814UDC     C663949  11.216   4.277   4.199 -0.9064 -0.7817 -0.1683
 5814UDC     C763950  11.117   4.235   4.083 -0.4144  0.1859  0.3979
 5814UDC     C863951  11.020   4.339   4.021 -0.4673 -0.5770  0.1880
 5814UDC     C963952  10.919   4.299   3.908  0.9926  0.4432 -0.4550
 5814UDC    C1063953  10.845   4.414   3.857  0.3493 -0.1770  0.0839
 5814UDC    C1163954  10.697   4.404   3.830  0.0427  0.2999  0.1760
 5815UDC     C163955  18.155   5.778  12.979  0.4228 -0.6632  0.4682
 5815UDC     C263956  18.280   5.836  13.050 -0.6158  0.6198 -0.1198
 5815UDC     C363957  18.365   5.742  13.140  1.3499 -0.6362  0.1709
 5815UDC     C463958  18.297   5.745  13.277  0.4416 -0.2977 -0.6675
 5815UDC     C563959  18.365   5.666  13.397 -0.0605 -0.7721  0.2193
 5815UDC     C663960  18.283   5.651  13.525  0.5328 -0.2484 -0.9596
 5815UDC     C763961  18.231   5.770  13.609 -0.1100  0.8207 -0.4207
 5815UDC     C863962  18.140   5.722  13.730 -0.5148 -0.8089  0.1854
 5815UDC     C963963  18.165   5.579  13.778 -0.3332  0.2652  0.2569
 5815UDC    C1063964  18.092   5.545  13.908 -1.0650 -0.3771  0.0461
 5815UDC    C1163965  17.936   5.538  13.887 -0.5712 -0.7774  0.9005
 5816UDC     C163966  12.195   9.824  15.312 -0.1667  0.0374 -0.1976
 5816UDC     C263967  12.312   9.766  15.393 -0.5907  0.3826 -0.0105
 5816UDC     C363968  12.333   9.616  15.384  0.8849 -0.4469 -0.8325
 5816UDC     C463969  12.403   9.549  15.503  0.9909 -0.8387  0.2672
 5816UDC     C563970  12.452   9.402  15.478 -0.5954 -1.6224  0.9682
 5816UDC     C663971  12.475   9.323  15.602 -0.0873  0.6588 -0.5097
 5816UDC     C763972  12.516   9.174  15.572  0.0311 -0.9143  0.1780
 5816UDC     C863973  12.572   9.117  15.700 -0.5923  0.6099  0.0810
 5816UDC     C963974  12.610   8.959  15.685 -0.1741 -0.1606 -0.3062
 5816UDC    C1063975  12.733   8.937  15.599 -0.3650 -0.5263 -0.0164
 5816UDC    C1163976  12.812   8.815  15.642  0.7808 -0.2350  0.0658
 5817UDC     C163977  18.767  16.676   4.945  0.6121 -0.6914  1.1803
 5817UDC     C263978  18.785  16.760   5.067  0.5083 -0.8609  0.4692
 5817UDC     C363979  18.831  16.901   5.039 -0.3853 -0.1621 -0.5841
 5817UDC     C463980  18.852  17.015   5.155 -0.4295 -0.3509 -0.3620
 5817UDC     C563981  18.900  17.144   5.087  0.5500 -0.1543  0.7163
 5817UDC     C663982  18.819  17.210   4.969  0.4156  0.9178 -0.1657
 5817UDC     C763983  18.859  17.349   4.927 -0.0676 -0.0942  1.1533
 5817UDC     C863984  18.745  17.425   4.835 -0.0897  0.0764  0.6844
 5817UDC     C963985  18.792  17.571   4.798  0.6291 -0.0349 -0.8057
 5817UDC    C1063986  18.841  17.628   4.932 -0.1718  0.1609  0.2056
 5817UDC    C1163987  18.725  17.627   5.036 -0.3290  0.5439 -0.1777
 5818UDC     C163988  17.122   3.479  17.085  0.4210 -0.4609 -0.7460
 5818UDC     C263989  17.032   3.476  16.958  0.5897  0.0544  0.1997
 5818UDC     C363990  17.085   3.590  16.868 -0.2891  0.0557 -0.2663
 5818UDC     C463991  17.072   3.557  16.720 -0.2295  0.8222  0.1143
 5818UDC     C563992  16.941   3.605  16.653 -0.6761  0.8720  0.2688
 5818UDC     C663993  16.914   3.563  16.504  0.4591 -0.8308 -0.2874
 5818UDC     C763994  17.000   3.624  16.402 -0.8531 -0.2064  1.1967
 5818UDC     C863995  16.936   3.746  16.341  0.9906  0.3361  0.4921
 5818UDC     C963996  17.037   3.797  16.234  1.0892  0.0478 -0.2498
 5818UDC    C1063997  16.984   3.806  16.095 -0.0144 -1.2548  0.4687
 5818UDC    C1163998  16.942   3.673  16.035 -0.7700  0.5544 -0.7100
 5819UDC     C163999   3.047  14.767  15.469  0.2096  0.5692 -0.9551
 5819UDC     C264000   2.937  14.838  15.385  1.0503  0.5289  0.4381
 5819UDC     C364001   2.967  14.984  15.356  0.6290  0.5561 -0.1192
 5819UDC     C464002   2.856  15.071  15.282  0.2017  0.9206  0.0674
 5819UDC     C564003   2.907  15.216  15.282 -0.9720  0.9240 -0.4571
 5819UDC     C664004   3.011  15.256  15.177  0.5616 -0.4620 -0.6816
 5819UDC     C764005   3.066  15.402  15.205 -0.0543  0.6866  0.9417
 5819UDC     C864006   3.122  15.485  15.086 -0.3039  0.5174  0.3480
 5819UDC     C964007   3.021  15.591  15.040 -1.2367  0.7304  0.0047
 5819UDC    C1064008   3.088  15.676  14.929  0.0951  1.6917 -0.1282
 5819UDC    C1164009   3.236  15.642  14.927  0.2428  0.7811 -1.1877
 5820UDC     C164010   7.992  11.471  11.415 -0.4165 -0.7687 -0.1668
 5820UDC     C264011   7.939  11.600  11.480  0.5990  0.3785  0.6682
 5820UDC     C364012   7.837  11.570  11.599 -0.3420 -0.2592  0.0237
 5820UDC     C464013   7.687  11.613  11.575 -0.2504 -0.5295 -0.5839
 5820UDC     C564014   7.597  11.519  11.660  0.4819  0.8805 -0.0357
 5820UDC     C664015   7.630  11.371  11.624  0.1035  0.2967  0.1849
 5820UDC     C764016   7.507  11.290  11.579 -0.1180  0.4138  0.6632
 5820UDC     C864017   7.470  11.328  11.431 -0.8851 -0.0068 -0.1287
 5820UDC     C964018   7.375  11.225  11.387  0.0246 -0.2852  0.3883
 5820UDC    C1064019   7.346  11.235  11.236  0.2604 -0.0819  0.2079
 5820UDC    C1164020   7.285  11.368  11.182 -0.2672  0.7783  0.3406
 5821UDC     C164021   3.920  10.982  10.245  0.6986 -0.8781 -0.7648
 5821UDC     C264022   4.068  10.968  10.216  0.1726 -0.8143  0.5099
 5821UDC     C364023   4.115  10.830  10.171 -0.2502 -0.1428 -0.5025
 5821UDC     C464024   4.266  10.814  10.155  0.3102 -0.2071  0.3087
 5821UDC     C564025   4.287  10.706  10.044  0.4492 -1.9216  0.4070
 5821UDC     C664026   4.436  10.708  10.001  0.5189  0.3857 -0.2476
 5821UDC     C764027   4.464  10.586   9.915  0.6017  0.3144 -0.5373
 5821UDC     C864028   4.603  10.586   9.854 -0.0990 -0.4401 -0.2684
 5821UDC     C964029   4.620  10.454   9.773 -0.4046 -0.4009  0.0807
 5821UDC    C1064030   4.733  10.452   9.668 -0.3233 -0.3294 -0.5276
 5821UDC    C1164031   4.700  10.535   9.545 -0.8004  0.8194 -0.0867
 5822UDC     C164032   1.591  14.068   9.334 -0.0244 -0.4384 -0.8241
 5822UDC     C264033   1.439  14.070   9.335 -0.1852 -0.4226  0.5154
 5822UDC     C364034   1.364  14.044   9.206 -0.4859  0.7966 -1.2707
 5822UDC     C464035   1.348  13.890   9.182  0.3408 -0.4619 -0.0737
 5822UDC     C564036   1.238  13.850   9.286  0.6217 -1.0381  0.1480
 5822UDC     C664037   1.120  13.941   9.266  0.3441  0.6575  0.7761
 5822UDC     C764038   0.988  13.921   9.343 -0.4427 -1.3167 -0.1392
 5822UDC     C864039   0.915  13.791   9.305 -0.6248 -0.0279  0.3547
 5822UDC     C964040   0.785  13.754   9.372 -0.1266  0.9677 -0.4391
 5822UDC    C1064041   0.696  13.651   9.301  0.0255  0.0682 -0.2072
 5822UDC    C1164042   0.575  13.614   9.391 -0.1450 -0.2272  0.5170
 5823UDC     C164043   9.390  10.057  16.581 -0.1129  0.2525 -0.3925
 5823UDC     C264044   9.276  10.083  16.673  0.8329 -0.4049 -0.6350
 5823UDC     C364045   9.300  10.219  16.737  0.7397 -1.0466 -0.6499
 5823UDC     C464046   9.293  10.326  16.622  0.8612  0.0341 -0.6552
 5823UDC     C564047   9.328  10.472  16.658  0.3983  0.9078  0.6878
 5823UDC     C664048   9.402  10.543  16.548  0.7671 -0.9068 -0.5931
 5823UDC     C764049   9.547  10.509  16.532 -1.2179  0.4453  0.0142
 5823UDC     C864050   9.666  10.609  16.559  0.4394  0.0278 -0.3309
 5823UDC     C964051   9.810  10.545  16.570 -0.5199 -0.1783  0.0171
 5823UDC    C1064052   9.926  10.639  16.597  0.0273 -0.3824 -1.1293
 5823UDC    C1164053  10.059  10.587  16.531  1.5369  1.0789 -0.1387
 5824UDC     C164054  14.034   8.541   6.960 -0.3392  0.1772  0.3480
 5824UDC     C264055  14.176   8.520   7.010 -0.1075  2.0716  0.5217
 5824UDC     C364056  14.174   8.439   7.143  0.1581 -0.4789  0.0452
 5824UDC     C464057  14.094   8.517   7.253 -0.5992 -0.7890  0.4001
 5824UDC     C564058  14.174   8.607   7.349 -0.9698  0.4420  1.8853
 5824UDC     C664059  14.099   8.645   7.470 -0.8571  0.0935  0.8296
 5824UDC     C764060  14.159   8.731   7.577  1.1128  0.2904 -0.4284
 5824UDC     C864061  14.084   8.730   7.712  0.7375  0.1481 -0.8597
 5824UDC     C964062  14.064   8.603   7.782  1.0599  1.0735 -0.6423
 5824UDC    C1064063  14.047   8.643   7.929  0.0091 -0.4522 -0.7828
 5824UDC    C1164064  14.186   8.599   7.991  1.4583  1.0582  0.1135
 5825UDC     C164065  12.033   8.250   0.098 -0.2883 -0.1010  0.2013
 5825UDC     C264066  11.913   8.285   0.195  0.0301  0.8366  0.5776
 5825UDC     C364067  11.778   8.327   0.141  0.2574  1.0427  0.6650
 5825UDC     C464068  11.673   8.365   0.251 -0.5867 -0.5074  0.1329
 5825UDC     C564069  11.643   8.516   0.238  0.7381 -0.7161  0.6949
 5825UDC     C664070  11.541   8.554   0.127 -0.5814  0.2707 -0.3889
 5825UDC     C764071  11.406   8.483   0.156  0.9837 -0.8352  0.6395
 5825UDC     C864072  11.295   8.552   0.069 -0.6962 -0.3651  0.4559
 5825UDC     C964073  11.161   8.567   0.136  0.3530 -0.0901 -0.8270
 5825UDC    C1064074  11.094   8.430   0.160 -0.0253  0.3477  0.5795
 5825UDC    C1164075  11.073   8.359   0.022  0.2789 -0.0834 -0.5657
 5826UDC     C164076  16.148  18.730  19.298 -0.3529 -0.4191 -0.0049
 5826UDC     C264077  16.100  18.623  19.191  0.1334 -0.0196 -1.4691
 5826UDC     C364078  16.218  18.543  19.123 -0.4444 -0.2213 -0.3075
 5826UDC     C464079  16.183  18.415  19.046  1.3213 -0.7702  0.1852
 5826UDC     C564080  16.189  18.277  19.115  0.5499 -0.7557  0.4678
 5826UDC     C664081  16.330  18.219  19.117  0.8026  0.7138 -1.0833
 5826UDC     C764082  16.336  18.063  19.135  0.0551 -0.0150  0.0425
 5826UDC     C864083  16.458  18.001  19.210 -0.1826  0.8433  0.1466
 5826UDC     C964084  16.598  18.049  19.181  0.7169  0.1612  0.1179
 5826UDC    C1064085  16.710  17.990  19.266 -0.3335  2.2220 -0.3397
 5826UDC    C1164086  16.843  18.084  19.251 -0.3434 -0.0197 -0.1365
 5827UDC     C164087  13.619   9.203  15.732  0.5473 -0.5240  0.0940
 5827UDC     C264088  13.493   9.257  15.792 -0.1965  0.4417 -0.3683
 5827UDC     C364089  13.459   9.395  15.736  0.5622 -0.4809 -1.2212
 5827UDC     C464090  13.319   9.428  15.799 -0.0094  0.0609  0.7422
 5827UDC     C564091  13.254   9.545  15.720 -0.9423 -0.1011 -0.6735
 5827UDC     C664092  13.293   9.509  15.578 -0.0992  0.4486  0.4443
 5827UDC     C764093  13.242   9.606  15.473  0.0099 -0.7212  0.1668
 5827UDC     C864094  13.268   9.574  15.327  0.2751 -0.1470  0.2022
 5827UDC     C964095  13.219   9.442  15.265 -0.0644  0.0424  0.4094
 5827UDC    C1064096  13.280   9.414  15.126  0.4169 -0.2097 -0.0656
 5827UDC    C1164097  13.242   9.272  15.071  0.0707 -0.2450  0.2470
 5828UDC     C164098   8.048  12.749  18.261  0.0201 -0.3199 -0.3515
 5828UDC     C264099   7.936  12.832  18.324  0.0556 -1.1291  0.2784
 5828UDC     C364100   7.830  12.765  18.413  0.5056 -0.3184  0.0656
 5828UDC     C464101   7.731  12.871  18.466 -0.0402 -0.0345 -0.3424
 5828UDC     C564102   7.667  12.826  18.601  0.3351 -0.9482 -0.4662
 5828UDC     C664103   7.755  12.862  18.721 -0.0806  0.6571  0.2819
 5828UDC     C764104   7.774  13.016  18.741  0.6710 -0.8522 -0.4970
 5828UDC     C864105   7.830  13.048  18.885 -0.0126  1.0234 -0.8311
 5828UDC     C964106   7.963  12.990  18.939  0.9913  0.7806 -0.4513
 5828UDC    C1064107   7.976  13.002  19.102 -0.5318  0.1525  1.4011
 5828UDC    C1164108   8.107  12.956  19.171 -0.2374 -0.1229 -0.1117
 5829UDC     C164109   8.778  14.366   4.281  0.3848  0.0430  1.0230
 5829UDC     C264110   8.690  14.240   4.274 -0.1167 -0.8006  1.2537
 5829UDC     C364111   8.723  14.162   4.136  0.5201 -0.7189  0.1997
 5829UDC     C464112   8.857  14.090   4.142  0.0979 -0.2249 -0.7078
 5829UDC     C564113   8.962  14.169   4.069  0.3934 -0.0570 -0.3513
 5829UDC     C664114   9.114  14.137   4.088  0.6306  1.0019 -1.0406
 5829UDC     C764115   9.189  14.248   4.013  0.4762 -0.3509  0.0821
 5829UDC     C864116   9.235  14.374   4.096 -1.0825 -1.2152  1.0323
 5829UDC     C964117   9.383  14.395   4.050 -0.0716  0.3328  0.7280
 5829UDC    C1064118   9.473  14.471   4.150  0.4155  0.0948  0.5477
 5829UDC    C1164119   9.623  14.455   4.128 -0.0564  0.1348  0.2833
 5830UDC     C164120   7.625  11.858  13.324  0.2891  0.2919 -0.4520
 5830UDC     C264121   7.750  11.848  13.408 -0.8944  0.6352 -0.1517
 5830UDC     C364122   7.772  11.977  13.481 -0.7988 -0.4423  0.1387
 5830UDC     C464123   7.671  12.023  13.593 -0.0273  0.1198  0.1580
 5830UDC     C564124   7.678  11.931  13.712  1.8607  1.2027  0.4455
 5830UDC     C664125   7.810  11.886  13.771  0.7216 -0.2037 -0.2580
 5830UDC     C764126   7.892  11.993  13.850  0.3016  1.3361 -1.0720
 5830UDC     C864127   8.032  11.946  13.880 -0.3003  0.6388 -0.4362
 5830UDC     C964128   8.049  11.855  14.005 -0.9875  0.7523 -1.5990
 5830UDC    C1064129   8.082  11.923  14.147 -0.0527  0.1891 -0.0869
 5830UDC    C1164130   8.133  11.839  14.264 -0.5354  0.2666 -0.2908
 5831UDC     C164131  13.704   5.525  18.716  1.1967 -0.3837  0.7407
 5831UDC     C264132  13.746   5.593  18.583  0.8477 -0.2153 -0.7647
 5831UDC     C364133  13.648   5.712  18.558 -0.1343 -0.0552 -0.4113
 5831UDC     C464134  13.499   5.682  18.531  0.3672  0.3846 -0.3498
 5831UDC     C564135  13.438   5.804  18.458  0.6834  0.6100 -0.5452
 5831UDC     C664136  13.285   5.792  18.436  0.2800  0.2057 -0.0529
 5831UDC     C764137  13.262   5.918  18.345  0.1370  0.8099  0.6074
 5831UDC     C864138  13.168   5.908  18.220  0.8587 -0.5080  0.2863
 5831UDC     C964139  13.144   6.028  18.127  0.5903  0.6373 -0.9122
 5831UDC    C1064140  13.069   6.002  17.990  0.2603 -1.1663  0.7437
 5831UDC    C1164141  12.920   6.041  18.007 -0.5690 -0.5727  0.0685
 5832UDC     C164142  11.837   6.205   4.221  0.4954  0.0761 -0.2526
 5832UDC     C264143  11.796   6.351   4.205  0.7519 -0.1178 -1.4819
 5832UDC     C364144  11.670   6.370   4.293  0.1194  0.2659 -1.7180
 5832UDC     C464145  11.574   6.247   4.311 -0.7778  0.2459 -0.7731
 5832UDC     C564146  11.419   6.269   4.330 -0.0675  0.6105 -0.3529
 5832UDC     C664147  11.348   6.136   4.342  0.0048 -0.2885  0.2416
 5832UDC     C764148  11.385   6.051   4.467 -1.2335  1.1970 -0.3491
 5832UDC     C864149  11.374   5.898   4.445 -0.8597  0.6760  1.0790
 5832UDC     C964150  11.413   5.811   4.570  0.0478 -0.5235  0.2543
 5832UDC    C1064151  11.353   5.671   4.565 -0.5016 -0.2788 -1.4141
 5832UDC    C1164152  11.422   5.554   4.515  0.6554  0.7535 -0.2731
 5833UDC     C164153   0.026   4.714  17.854  0.4213  0.0786  0.1843
 5833UDC     C264154   0.093   4.661  17.983 -0.0853 -0.2867  0.2316
 5833UDC     C364155   0.061   4.738  18.115 -0.3359 -0.0439  1.4303
 5833UDC     C464156   0.145   4.867  18.139  0.0084 -1.2040 -0.6742
 5833UDC     C564157   0.056   4.974  18.198 -0.3833 -1.3675 -0.1026
 5833UDC     C664158   0.145   5.081  18.264  0.2072  0.0067 -0.8601
 5833UDC     C764159   0.178   5.061  18.415 -0.1860  0.2255  1.3583
 5833UDC     C864160   0.208   5.183  18.489 -0.2127  0.0263 -0.5936
 5833UDC     C964161   0.258   5.158  18.631  0.9913 -0.1774 -1.0797
 5833UDC    C1064162   0.240   5.274  18.727 -0.6992 -0.8545 -0.3150
 5833UDC    C1164163   0.192   5.267  18.872 -0.7448  0.3439  0.5522
 5834UDC     C164164   6.860  12.273   9.860 -0.8331 -0.4130 -0.1431
 5834UDC     C264165   7.000  12.261   9.793 -0.0780 -0.9119  1.6554
 5834UDC     C364166   7.053  12.113   9.752  0.2433 -0.4882  0.2884
 5834UDC     C464167   7.077  12.022   9.876  0.9845  0.5620  0.6310
 5834UDC     C564168   7.220  12.056   9.907  0.8621 -0.3226 -0.3766
 5834UDC     C664169   7.265  11.992  10.040 -0.7066  0.0982  0.0020
 5834UDC     C764170   7.400  12.050  10.098  0.6364 -0.1498 -0.0700
 5834UDC     C864171   7.420  12.002  10.240 -1.2351 -0.1830 -0.4240
 5834UDC     C964172   7.514  12.082  10.328  0.4301  0.5372  0.3121
 5834UDC    C1064173   7.662  12.054  10.299  0.2684  0.3332  0.1896
 5834UDC    C1164174   7.762  12.109  10.406  0.3561  0.6734 -1.0385
 5835UDC     C164175  11.488  12.839   2.109 -0.2273  0.6038 -0.0810
 5835UDC     C264176  11.510  12.949   2.210  0.3166 -0.7184 -0.2493
 5835UDC     C364177  11.524  12.900   2.354  0.2270 -0.6700 -0.2101
 5835UDC     C464178  11.517  13.008   2.455  1.4589  0.3234  0.2217
 5835UDC     C564179  11.375  13.045   2.490 -0.7204 -1.0566 -0.5210
 5835UDC     C664180  11.379  13.127   2.626  0.9650 -0.5024 -0.6805
 5835UDC     C764181  11.357  13.055   2.758 -0.7270  0.3423  0.3322
 5835UDC     C864182  11.340  13.125   2.893  0.7337 -0.2203 -1.1297
 5835UDC     C964183  11.395  13.268   2.896 -0.3403  0.4936 -0.0593
 5835UDC    C1064184  11.334  13.343   3.013 -0.6476  0.3130  0.7749
 5835UDC    C1164185  11.357  13.499   3.018 -0.8928  0.5095 -0.6274
 5836UDC     C164186   8.303   3.510  14.390  0.0738 -0.8640 -0.1580
 5836UDC     C264187   8.234   3.559  14.259 -0.1352 -0.2664  0.5705
 5836UDC     C364188   8.243   3.717  14.260 -0.3361 -0.4778  0.0667
 5836UDC     C464189   8.386   3.761  14.296  0.1603 -0.2334 -0.7898
 5836UDC     C564190   8.375   3.871  14.401  0.0815  0.8980 -0.0531
 5836UDC     C664191   8.518   3.917  14.450 -0.5563  0.9819  0.0415
 5836UDC     C764192   8.498   4.008  14.567 -1.1090  0.4802 -0.0389
 5836UDC     C864193   8.381   4.098  14.572 -0.1576 -1.0089 -0.5274
 5836UDC     C964194   8.329   4.138  14.712  1.3209 -0.0216  0.7856
 5836UDC    C1064195   8.181   4.174  14.705  0.3589  0.3585  0.4401
 5836UDC    C1164196   8.116   4.168  14.842  0.6891  0.4270  0.0203
 5837UDC     C164197  13.201  10.193   7.813  0.7065 -0.5641  0.0273
 5837UDC     C264198  13.126  10.094   7.896  0.4683 -0.0573  0.6485
 5837UDC     C364199  13.196  10.052   8.029 -0.9784  1.3977  0.3657
 5837UDC     C464200  13.120   9.937   8.104 -1.1337  0.2634  0.4593
 5837UDC     C564201  13.166   9.796   8.058  0.3051  0.0518  0.0657
 5837UDC     C664202  13.199   9.710   8.181 -0.4765  0.4192  0.4769
 5837UDC     C764203  13.293   9.783   8.284  0.5400 -0.5275  1.2408
 5837UDC     C864204  13.290   9.727   8.430 -0.5538 -1.1877 -0.6376
 5837UDC     C964205  13.379   9.824   8.511 -1.1142  0.4189 -0.6657
 5837UDC    C1064206  13.390   9.758   8.649 -0.4475 -0.2239 -0.4555
 5837UDC    C1164207  13.489   9.642   8.678 -0.3307 -0.5907  0.4731
 5838UDC     C164208   9.130  12.773   7.890 -0.0463 -0.5495  1.0890
 5838UDC     C264209   9.127  12.790   7.739  0.9027 -1.3707  0.0560
 5838UDC     C364210   8.987  12.739   7.679  0.6159 -0.3586  0.5398
 5838UDC     C464211   8.964  12.804   7.535  0.0512  0.5527 -0.5340
 5838UDC     C564212   8.813  12.788   7.485 -0.0965 -0.5518 -0.8551
 5838UDC     C664213   8.788  12.816   7.339 -0.2608 -0.2799 -0.6953
 5838UDC     C764214   8.672  12.734   7.285 -0.1710 -1.1280  0.9678
 5838UDC     C864215   8.545  12.774   7.361  0.0098 -0.1838 -0.3356
 5838UDC     C964216   8.416  12.722   7.311 -0.0276  0.1427 -0.0270
 5838UDC    C1064217   8.381  12.581   7.360 -0.2385  0.2816 -0.0807
 5838UDC    C1164218   8.358  12.570   7.510  0.1616  1.9854 -0.5327
 5839UDC     C164219   7.009   0.309  15.016 -0.4528  0.2023  0.7338
 5839UDC     C264220   6.859   0.348  15.023 -0.0158  0.1128 -0.0280
 5839UDC     C364221   6.769   0.278  14.918 -0.0843  0.1336  0.1405
 5839UDC     C464222   6.617   0.319  14.925 -0.3121 -0.7149 -0.5384
 5839UDC     C564223   6.574   0.466  14.897 -0.1471  0.0197  0.2518
 5839UDC     C664224   6.427   0.490  14.887 -0.2865 -0.7956 -0.2330
 5839UDC     C764225   6.374   0.637  14.867  0.3930 -0.7251  1.4688
 5839UDC     C864226   6.224   0.656  14.824  0.3984  0.7384  0.7351
 5839UDC     C964227   6.156   0.575  14.708  0.6582 -0.6022 -0.6892
 5839UDC    C1064228   6.076   0.446  14.756  0.6790 -0.4215  0.3238
 5839UDC    C1164229   5.960   0.470  14.860 -0.5447 -0.2470  0.5596
 5840UDC     C164230   9.284  18.418   6.971 -0.2049 -0.0785  0.8020
 5840UDC     C264231   9.291  18.566   7.006  0.2586  0.9418 -0.2546
 5840UDC     C364232   9.433  18.613   7.041  0.5421 -0.5967 -0.1268
 5840UDC     C464233   9.443  18.763   7.017 -0.6049 -0.2242 -0.5565
 5840UDC     C564234   9.589  18.815   7.005  1.0044  0.0202  0.2767
 5840UDC     C664235   9.671  18.763   6.893  0.4964  0.3360  1.3371
 5840UDC     C764236   9.832  18.768   6.901  0.2167  0.0407 -0.8568
 5840UDC     C864237   9.912  18.653   6.830  1.1290  0.1710  0.0282
 5840UDC     C964238  10.038  18.621   6.923 -0.8186  0.4646  0.2085
 5840UDC    C1064239  10.030  18.563   7.066 -1.1767  1.1196  0.5113
 5840UDC    C1164240   9.962  18.428   7.084 -0.5191  0.8131  0.1806
 5841UDC     C164241   2.608   6.086   1.728  0.5924 -0.4106 -0.6295
 5841UDC     C264242   2.602   5.968   1.820 -1.4057  0.2601  0.3046
 5841UDC     C364243   2.588   5.825   1.764  0.4836  0.1723 -0.2049
 5841UDC     C464244   2.578   5.731   1.890  0.1151 -0.0279 -0.3261
 5841UDC     C564245   2.457   5.735   1.986  0.5254  0.7582 -1.4351
 5841UDC     C664246   2.443   5.611   2.067  0.5785  0.0958 -0.2746
 5841UDC     C764247   2.379   5.507   1.974  0.1987 -0.0242  1.0066
 5841UDC     C864248   2.230   5.538   1.955  0.5511  0.2963 -0.1550
 5841UDC     C964249   2.179   5.512   1.813 -0.8215 -0.2951  0.7955
 5841UDC    C1064250   2.056   5.595   1.786  0.4641  0.4840  1.1732
 5841UDC    C1164251   2.086   5.735   1.821 -0.9742 -0.5196  0.1755
 5842UDC     C164252   4.451   5.850   5.118  0.4915 -0.2809 -0.2420
 5842UDC     C264253   4.543   5.966   5.099 -0.3632  0.3474 -0.6106
 5842UDC     C364254   4.660   5.966   5.200 -0.2683 -0.2222 -0.7826
 5842UDC     C464255   4.771   6.080   5.177 -0.1952 -0.2678  0.1195
 5842UDC     C564256   4.870   6.061   5.291 -0.8825 -0.2144 -0.5556
 5842UDC     C664257   5.008   6.130   5.302 -0.2126 -0.0656  0.3345
 5842UDC     C764258   5.023   6.281   5.282 -0.0023  0.1860 -1.6068
 5842UDC     C864259   5.167   6.333   5.263  0.2337 -0.4508  0.4429
 5842UDC     C964260   5.254   6.275   5.158  0.3703 -0.2425  0.0401
 5842UDC    C1064261   5.261   6.335   5.016  0.3878  0.3806 -0.2503
 5842UDC    C1164262   5.193   6.248   4.903  0.4399 -0.6218  0.4739
 5843UDC     C164263   3.101  11.260  13.842  0.0368  0.4147  1.0639
 5843UDC     C264264   3.180  11.225  13.711  0.5708 -0.7924 -0.8232
 5843UDC     C364265   3.338  11.203  13.728  0.3575 -1.2981  0.2232
 5843UDC     C464266   3.411  11.231  13.596  0.4222  0.1579  0.7169
 5843UDC     C564267   3.384  11.109  13.502  0.1727 -1.1462  0.0309
 5843UDC     C664268   3.399  11.157  13.356 -0.1389  0.6329 -0.3336
 5843UDC     C764269   3.334  11.048  13.265 -0.6692  0.1046 -0.3107
 5843UDC     C864270   3.184  11.045  13.269 -0.3636  0.2469  0.1434
 5843UDC     C964271   3.118  11.179  13.222  1.1627  0.0529 -0.5219
 5843UDC    C1064272   2.964  11.154  13.244  0.2877 -0.4926  0.3647
 5843UDC    C1164273   2.882  11.286  13.250  0.1934  0.6275  0.0149
 5844UDC     C164274   1.275  17.724   2.906 -0.6174 -0.1249 -0.1041
 5844UDC     C264275   1.257  17.703   3.059 -0.2894  0.9252 -0.2420
 5844UDC     C364276   1.372  17.751   3.144  0.3940 -0.1572 -0.2147
 5844UDC     C464277   1.330  17.760   3.290 -0.1519  0.2160  0.2058
 5844UDC     C564278   1.430  17.819   3.391  0.6359  0.2370 -0.3131
 5844UDC     C664279   1.364  17.885   3.516 -1.0002  0.4768 -0.7275
 5844UDC     C764280   1.470  17.978   3.576  0.9048 -0.0030  1.3323
 5844UDC     C864281   1.429  18.085   3.675 -0.5199  0.0600  0.2391
 5844UDC     C964282   1.316  18.185   3.638 -0.5085  0.0880  0.0799
 5844UDC    C1064283   1.380  18.306   3.556 -0.3062 -0.0459 -0.7168
 5844UDC    C1164284   1.262  18.383   3.496  0.3733 -0.3173 -0.7565
 5845UDC     C164285  10.642  18.673   9.333  0.6011  0.1937 -0.5247
 5845UDC     C264286  10.597  18.760   9.456  0.5918  0.4424 -0.2391
 5845UDC     C364287  10.718  18.764   9.550 -0.3235  0.3325  0.1924
 5845UDC     C464288  10.788  18.898   9.534 -0.0015  0.6209  0.0927
 5845UDC     C564289  10.870  18.944   9.415 -0.3936 -0.1554  0.6591
 5845UDC     C664290  10.940  19.087   9.433  0.9426  0.9708  0.3383
 5845UDC     C764291  11.039  19.099   9.318  0.5490  1.0035  0.7323
 5845UDC     C864292  11.104  19.233   9.291 -0.4339  0.2030  0.6121
 5845UDC     C964293  11.043  19.371   9.325 -0.6905 -0.4038  0.4329
 5845UDC    C1064294  11.095  19.505   9.274  0.3405  0.6805 -0.1078
 5845UDC    C1164295  11.011  19.622   9.329  0.1476  0.5528 -1.1117
 5846UDC     C164296   4.245   9.135  15.946 -0.4359 -1.0674 -0.4714
 5846UDC     C264297   4.113   9.091  16.003 -0.8080  0.4070  0.3075
 5846UDC     C364298   4.122   8.943  16.048  0.3049  0.2535  0.0535
 5846UDC     C464299   4.117   8.839  15.926  0.4810 -0.9005  0.1687
 5846UDC     C564300   3.973   8.840  15.871 -0.4445 -0.7969  0.2719
 5846UDC     C664301   3.963   8.800  15.726 -0.4315  0.1509  0.7323
 5846UDC     C764302   3.819   8.820  15.675 -0.5207  0.4598  1.2512
 5846UDC     C864303   3.749   8.721  15.767 -0.0128 -0.3387  0.2339
 5846UDC     C964304   3.591   8.710  15.749 -0.3090 -0.6657 -0.2808
 5846UDC    C1064305   3.519   8.606  15.841 -0.8148  0.0825  1.3412
 5846UDC    C1164306   3.368   8.618  15.837  1.9705  0.2210 -0.5602
 5847UDC     C164307  13.376  16.414  12.704 -0.7393 -0.1663  0.6104
 5847UDC     C264308  13.286  16.539  12.714  0.6958 -0.1111  0.7719
 5847UDC     C364309  13.197  16.552  12.591 -0.2892  0.7453  0.1252
 5847UDC     C464310  13.106  16.680  12.579 -0.4009  0.0380 -0.0960
 5847UDC     C564311  13.001  16.713  12.684  0.5417  0.2978 -0.0470
 5847UDC     C664312  12.920  16.590  12.696  0.9153 -0.7870 -0.4861
 5847UDC     C764313  12.811  16.593  12.810 -0.1669 -0.1908  0.2706
 5847UDC     C864314  12.834  16.488  12.918 -0.4787  0.2721  0.5063
 5847UDC     C964315  12.876  16.559  13.049 -0.5785 -0.2238  0.1765
 5847UDC    C1064316  12.828  16.706  13.076 -0.4116  0.0978 -0.0445
 5847UDC    C1164317  12.899  16.754  13.200  0.2556  0.9452 -0.1000
 5848UDC     C164318   2.603   2.492  19.263  0.9866 -0.1024 -0.0226
 5848UDC     C264319   2.593   2.639  19.304  0.0986  0.0662 -0.0236
 5848UDC     C364320   2.673   2.635  19.437  0.4342  0.4626 -1.2977
 5848UDC     C464321   2.746   2.771  19.462  0.8727  0.5161 -0.6039
 5848UDC     C564322   2.877   2.764  19.548 -0.3667 -0.0643 -0.2117
 5848UDC     C664323   2.948   2.897  19.592 -0.2381 -0.3173  0.8919
 5848UDC     C764324   2.999   2.972  19.469 -0.3605  0.2787 -0.3164
 5848UDC     C864325   3.098   2.876  19.385  0.8602  0.9944 -0.3149
 5848UDC     C964326   3.193   2.949  19.300 -0.4762 -0.4650  0.9367
 5848UDC    C1064327   3.297   2.858  19.225 -1.6056 -0.3962  0.1761
 5848UDC    C1164328   3.360   2.936  19.102 -0.1440 -1.9114 -0.0405
 5849UDC     C164329   0.887   4.618   3.823 -0.4209  0.8964  0.0465
 5849UDC     C264330   1.003   4.527   3.773  0.1409 -0.8331  0.4007
 5849UDC     C364331   1.014   4.399   3.854  0.1356  0.1287  0.2771
 5849UDC     C464332   1.028   4.262   3.775  0.5611 -0.4974  1.1403
 5849UDC     C564333   1.027   4.140   3.862 -0.2705 -0.6472  1.1890
 5849UDC     C664334   1.021   4.014   3.770  0.4020  0.6598  0.0419
 5849UDC     C764335   1.125   3.969   3.659  0.1048 -0.5867 -1.3279
 5849UDC     C864336   1.261   3.918   3.706 -0.5760  0.3910 -0.4797
 5849UDC     C964337   1.282   3.766   3.696 -0.7649  1.2547  0.3701
 5849UDC    C1064338   1.163   3.675   3.738 -0.5960 -0.5437  0.1307
 5849UDC    C1164339   1.045   3.638   3.643 -0.4310 -0.3171 -0.4410
 5850UDC     C164340   1.365  18.183   2.099 -0.2233  0.1261  0.1399
 5850UDC     C264341   1.443  18.044   2.085  0.9039 -0.2793 -1.3024
 5850UDC     C364342   1.360  17.930   2.033 -0.1119 -0.4682 -0.3909
 5850UDC     C464343   1.432  17.795   1.995 -0.7453 -0.5887  0.6726
 5850UDC     C564344   1.491  17.705   2.101 -0.5474  0.2760  0.1891
 5850UDC     C664345   1.392  17.586   2.117  0.9404 -0.0762  0.0117
 5850UDC     C764346   1.446  17.465   2.206  0.6707 -1.4812 -0.0408
 5850UDC     C864347   1.601  17.435   2.200 -0.0951  0.2649 -0.1243
 5850UDC     C964348   1.640  17.303   2.279  0.0334 -0.3181 -0.2552
 5850UDC    C1064349   1.645  17.185   2.178  0.4945  0.4370 -1.0090
 5850UDC    C1164350   1.769  17.176   2.083  0.3727 -0.2876  0.2123
 5851UDC     C164351   0.250   1.536   2.148 -0.1179  0.7639 -0.3058
 5851UDC     C264352   0.212   1.382   2.125  0.0339 -0.0514 -0.5408
 5851UDC     C364353   0.056   1.366   2.105 -0.5760  1.1881 -0.6472
 5851UDC     C464354   0.011   1.398   1.959 -0.3673  0.1594  0.0651
 5851UDC     C564355   0.081   1.328   1.843 -0.0217 -0.0318  0.8453
 5851UDC     C664356  -0.009   1.211   1.812  0.4831  0.9241 -0.0114
 5851UDC     C764357   0.052   1.080   1.745 -0.1264 -0.5541  0.8929
 5851UDC     C864358   0.178   1.007   1.813  0.2787  0.3267  0.5880
 5851UDC     C964359   0.272   0.931   1.711 -1.1273 -0.7796 -0.4263
 5851UDC    C1064360   0.375   0.845   1.780 -0.9148  0.7827  1.2371
 5851UDC    C1164361   0.316   0.753   1.894  0.7159  0.7121 -0.2776
 5852UDC     C164362  12.186   7.475  18.304 -0.2906 -0.5429  0.4424
 5852UDC     C264363  12.205   7.371  18.184 -0.9011  0.2984  0.1193
 5852UDC     C364364  12.280   7.454  18.079  0.1127  0.2141 -0.5323
 5852UDC     C464365  12.330   7.401  17.951 -1.0932 -1.1879  1.0640
 5852UDC     C564366  12.260   7.478  17.836  0.3381  0.8048 -0.4984
 5852UDC     C664367  12.340   7.605  17.811 -0.0306 -0.0390  0.5479
 5852UDC     C764368  12.302   7.693  17.685 -0.8907 -0.0284  0.3949
 5852UDC     C864369  12.168   7.755  17.671  0.7280  0.0991  0.6096
 5852UDC     C964370  12.074   7.685  17.565 -0.7916  0.0469 -0.1757
 5852UDC    C1064371  11.954   7.765  17.508  0.1045 -0.3804  0.4826
 5852UDC    C1164372  11.857   7.687  17.424 -0.2904  0.5462  0.0190
 5853UDC     C164373   8.506  17.456   2.147 -0.7336  0.2723  0.1692
 5853UDC     C264374   8.634  17.489   2.057  0.4142  0.6852  0.5908
 5853UDC     C364375   8.682  17.636   2.073  0.0016 -0.5858 -1.2226
 5853UDC     C464376   8.837  17.647   2.060  0.6217 -0.0082  0.1851
 5853UDC     C564377   8.902  17.532   1.984  1.0843  0.1527 -0.0361
 5853UDC     C664378   9.045  17.582   1.943 -1.4662  1.6418 -0.6862
 5853UDC     C764379   9.088  17.473   1.836  0.6561 -0.3596 -0.7388
 5853UDC     C864380   9.145  17.341   1.891 -0.2109 -0.5566  0.2323
 5853UDC     C964381   9.278  17.370   1.964 -0.3056 -1.2448  0.4286
 5853UDC    C1064382   9.361  17.246   1.968  0.1887  0.0352 -0.9677
 5853UDC    C1164383   9.286  17.144   2.052  0.1311 -0.9832 -0.2448
 5854UDC     C164384   8.786  14.782  15.976 -0.0655 -0.0184  0.2066
 5854UDC     C264385   8.794  14.927  15.919  0.2341  0.0621 -1.1348
 5854UDC     C364386   8.804  14.906  15.766 -1.0475 -0.4918  0.7182
 5854UDC     C464387   8.944  14.974  15.725  0.2307  1.2832  0.6489
 5854UDC     C564388   8.947  15.125  15.755  0.0294  0.7876  1.0140
 5854UDC     C664389   9.073  15.177  15.823  0.4500  0.0363  0.1191
 5854UDC     C764390   9.052  15.310  15.895  0.2572 -0.5062 -1.2461
 5854UDC     C864391   8.929  15.304  15.992 -0.0555 -0.5552  0.4295
 5854UDC     C964392   8.895  15.423  16.083 -0.3063  0.0046 -1.6347
 5854UDC    C1064393   8.742  15.424  16.129 -0.7947  0.1394  0.6933
 5854UDC    C1164394   8.696  15.278  16.153  0.6624  0.6049 -0.1888
 5855UDC     C164395   9.256  12.037   1.549 -1.1808  1.0018  0.6321
 5855UDC     C264396   9.150  11.930   1.565  0.0778  1.0913 -0.1393
 5855UDC     C364397   9.080  11.900   1.430 -1.2383  0.5137 -0.7028
 5855UDC     C464398   8.969  11.792   1.444  0.1919  0.3060 -0.1354
 5855UDC     C564399   8.924  11.737   1.305  0.2561 -0.4954 -0.3290
 5855UDC     C664400   9.025  11.652   1.230  0.8116  0.5998  0.1110
 5855UDC     C764401   8.966  11.555   1.124 -0.5662 -0.0268 -0.2201
 5855UDC     C864402   8.955  11.411   1.178  0.9601 -0.9459  0.2357
 5855UDC     C964403   8.999  11.281   1.105 -0.7811 -0.5475  0.2290
 5855UDC    C1064404   8.891  11.223   1.015  0.2591  0.1802  0.2520
 5855UDC    C1164405   8.911  11.093   0.935 -1.0738  0.4999 -0.0788
 5856UDC     C164406  16.578  18.989  12.358 -0.8840 -1.0685 -0.6049
 5856UDC     C264407  16.462  18.896  12.378 -0.6566 -0.0627 -0.0364
 5856UDC     C364408  16.380  18.933  12.502  0.0705  0.5543  1.0386
 5856UDC     C464409  16.270  18.834  12.528  1.2791  0.5377  0.5369
 5856UDC     C564410  16.221  18.804  12.673  0.5341 -0.0376  0.6443
 5856UDC     C664411  16.092  18.718  12.672  0.7068  0.3381 -0.6905
 5856UDC     C764412  15.972  18.796  12.616  0.2142 -1.2362  0.0910
 5856UDC     C864413  15.848  18.727  12.660  0.5983  0.0850 -0.4380
 5856UDC     C964414  15.737  18.828  12.682  0.0772 -0.4363 -0.1800
 5856UDC    C1064415  15.719  18.927  12.566 -1.1690  0.1015 -0.5651
 5856UDC    C1164416  15.603  19.029  12.591  0.0599  1.4128 -0.3231
 5857UDC     C164417  19.575  11.221   5.294  0.2981 -0.2524  0.6087
 5857UDC     C264418  19.610  11.072   5.284  0.0194 -0.2225 -0.1478
 5857UDC     C364419  19.529  10.983   5.181 -0.9899  0.0094 -0.4619
 5857UDC     C464420  19.384  10.956   5.229  0.5292 -0.5618 -0.3936
 5857UDC     C564421  19.325  10.842   5.152  0.7305  0.1782  0.3144
 5857UDC     C664422  19.345  10.872   4.999 -0.2870  0.7083 -0.6900
 5857UDC     C764423  19.363  10.746   4.931  0.3916  0.0768 -0.9260
 5857UDC     C864424  19.226  10.679   4.909 -0.4333 -0.9228  0.2975
 5857UDC     C964425  19.132  10.789   4.847 -0.0728  0.5374 -0.1390
 5857UDC    C1064426  19.005  10.735   4.779  0.3563  0.8888 -1.3618
 5857UDC    C1164427  18.877  10.790   4.841  0.2826 -0.7027 -0.7086
 5858UDC     C164428   3.074   8.737  11.373  0.8197  0.1646 -0.4684
 5858UDC     C264429   3.198   8.641  11.372 -0.4683  0.8752  0.7130
 5858UDC     C364430   3.170   8.503  11.304 -0.3819 -0.2395 -0.5553
 5858UDC     C464431   3.068   8.402  11.359  0.4317  0.7750  1.4858
 5858UDC     C564432   3.049   8.277  11.278 -0.1036  1.1246  0.3377
 5858UDC     C664433   3.159   8.179  11.299 -0.7176  0.5915  0.1984
 5858UDC     C764434   3.190   8.070  11.191  0.2120 -0.5311 -0.3715
 5858UDC     C864435   3.204   8.125  11.048  0.1972  1.2947 -0.7372
 5858UDC     C964436   3.310   8.047  10.958 -0.1425 -0.5629  0.2988
 5858UDC    C1064437   3.325   8.090  10.811  0.7157 -0.2741 -0.1224
 5858UDC    C1164438   3.234   8.001  10.731 -0.8429 -0.3696  0.2691
 5859UDC     C164439   0.339   6.795   8.778  1.2573  0.1833  0.1401
 5859UDC     C264440   0.426   6.888   8.866 -0.4376 -0.8135 -0.7793
 5859UDC     C364441   0.457   7.025   8.793 -0.6554 -0.5701  0.8426
 5859UDC     C464442   0.510   7.144   8.872 -0.7368 -0.1683 -0.2512
 5859UDC     C564443   0.512   7.275   8.797 -0.1392 -0.2075 -0.2225
 5859UDC     C664444   0.598   7.375   8.884  0.0184  0.4162  0.2125
 5859UDC     C764445   0.613   7.513   8.830  0.4235  0.1802  0.4711
 5859UDC     C864446   0.650   7.606   8.944  0.2565  0.4811 -0.2159
 5859UDC     C964447   0.722   7.739   8.911  0.2791  0.4452  0.2679
 5859UDC    C1064448   0.618   7.837   8.852  0.3554 -0.4499  0.8242
 5859UDC    C1164449   0.519   7.876   8.960 -0.8712 -0.4275 -0.8404
 5860UDC     C164450   2.604   8.478   4.033  0.7593  0.1689  0.0377
 5860UDC     C264451   2.743   8.443   3.995 -1.0647 -0.7563  0.5832
 5860UDC     C364452   2.791   8.480   3.851  0.0552 -0.1320  0.5542
 5860UDC     C464453   2.759   8.630   3.815 -0.3934 -1.7532 -0.2724
 5860UDC     C564454   2.807   8.689   3.679 -0.8238  0.4235 -0.5725
 5860UDC     C664455   2.803   8.839   3.672 -0.1002  0.4603 -0.2054
 5860UDC     C764456   2.897   8.893   3.565  0.4166  1.0006 -0.1550
 5860UDC     C864457   2.876   9.031   3.510 -0.0963 -0.4741 -0.6719
 5860UDC     C964458   2.951   9.047   3.376 -0.1356  0.2094  0.6667
 5860UDC    C1064459   2.936   9.184   3.317  0.5737  0.4320  0.2579
 5860UDC    C1164460   3.027   9.303   3.368 -0.0890  1.0380  0.2649
 5861UDC     C164461  17.868   4.990   3.268 -0.1494 -0.2999  0.8318
 5861UDC     C264462  17.723   5.011   3.218  0.8764 -0.1176 -0.6749
 5861UDC     C364463  17.693   5.070   3.079 -0.5721 -0.4595 -0.3017
 5861UDC     C464464  17.547   5.071   3.051  0.0391  0.4861 -0.3888
 5861UDC     C564465  17.486   5.162   2.949  0.1467 -0.3843 -0.5313
 5861UDC     C664466  17.339   5.201   2.965 -0.6019 -0.0755 -0.1807
 5861UDC     C764467  17.311   5.343   3.015  0.7049 -0.3378  0.0058
 5861UDC     C864468  17.175   5.360   3.095  0.2817  0.0088 -0.6692
 5861UDC     C964469  17.153   5.503   3.142  0.6631 -1.1098  0.8246
 5861UDC    C1064470  17.167   5.581   3.006  0.0341 -0.7340  0.5438
 5861UDC    C1164471  17.139   5.736   3.004  0.5528 -0.5931  1.5346
 5862UDC     C164472   3.388   8.517   4.202  0.1644  0.3996  0.0598
 5862UDC     C264473   3.496   8.439   4.120 -0.4995 -0.0696  0.6536
 5862UDC     C364474   3.485   8.455   3.965 -0.8317 -0.0002 -1.2893
 5862UDC     C464475   3.622   8.430   3.902  1.7039  0.4731  0.3589
 5862UDC     C564476   3.597   8.445   3.750 -0.2836 -0.5956  0.0632
 5862UDC     C664477   3.599   8.587   3.703 -1.6459 -0.5227  0.7222
 5862UDC     C764478   3.547   8.591   3.551  0.0887 -1.2289  0.1627
 5862UDC     C864479   3.656   8.557   3.444 -0.6850 -0.4443 -0.5716
 5862UDC     C964480   3.607   8.557   3.294  0.3126  0.4206  0.4282
 5862UDC    C1064481   3.700   8.518   3.179  0.0958  0.5351 -1.1256
 5862UDC    C1164482   3.674   8.386   3.106  0.8368 -0.5857  0.5074
 5863UDC     C164483  18.550   8.490   6.268 -0.5329 -0.3497 -0.9957
 5863UDC     C264484  18.436   8.515   6.366  0.3358 -0.5688 -0.4927
 5863UDC     C364485  18.309   8.469   6.295 -0.6781 -0.0986 -0.2779
 5863UDC     C464486  18.332   8.329   6.220  0.1503 -0.0091 -0.6258
 5863UDC     C564487  18.299   8.225   6.325 -0.5339  1.0037  0.0323
 5863UDC     C664488  18.310   8.085   6.263  1.0796  0.8153  0.8873
 5863UDC     C764489  18.177   8.001   6.252  0.1647  1.1387  0.2919
 5863UDC     C864490  18.187   7.845   6.234 -0.0376 -1.0703 -0.9637
 5863UDC     C964491  18.067   7.755   6.215  0.1465  0.3107 -0.4102
 5863UDC    C1064492  18.101   7.603   6.233  1.3455 -0.6312  0.1685
 5863UDC    C1164493  18.201   7.561   6.131  0.5125 -0.4388  0.6535
 5864UDC     C164494   4.500   8.052  11.068  0.0640  0.0036 -0.5528
 5864UDC     C264495   4.387   8.014  11.164  0.3984  0.5215 -0.4429
 5864UDC     C364496   4.443   7.905  11.260  0.6293 -0.2980 -0.0986
 5864UDC     C464497   4.338   7.814  11.322  0.3842  0.6793 -0.3117
 5864UDC     C564498   4.245   7.889  11.418  0.5897  1.0268 -0.0365
 5864UDC     C664499   4.208   7.809  11.540  0.4726  0.0573 -0.0314
 5864UDC     C764500   4.075   7.836  11.623  0.6509  1.2439  0.5108
 5864UDC     C864501   3.980   7.721  11.678  0.2638 -1.2430  0.9728
 5864UDC     C964502   3.856   7.750  11.767 -1.3265  0.8606  0.5459
 5864UDC    C1064503   3.872   7.839  11.892 -0.4592  0.0559 -1.0739
 5864UDC    C1164504   3.922   7.766  12.022 -0.5981 -0.2733  0.1320
 5865UDC     C164505  18.560   7.272  10.740  0.2607 -0.7048  0.5450
 5865UDC     C264506  18.579   7.283  10.891 -0.2832  1.6419  0.0596
 5865UDC     C364507  18.476   7.194  10.969  0.3002  0.4796  1.7640
 5865UDC     C464508  18.343   7.268  10.985  0.0958 -0.1990  0.2511
 5865UDC     C564509  18.330   7.352  11.112 -0.9076  0.0338  1.3993
 5865UDC     C664510  18.191   7.380  11.147  0.0996 -0.3402 -0.7680
 5865UDC     C764511  18.161   7.339  11.288 -0.2698 -0.1869 -1.6020
 5865UDC     C864512  18.026   7.383  11.350  0.1938 -0.0839  0.3414
 5865UDC     C964513  17.897   7.320  11.295  0.0618 -0.3763 -0.3399
 5865UDC    C1064514  17.854   7.177  11.327  0.4822  0.5067 -0.0979
 5865UDC    C1164515  17.771   7.162  11.460 -0.9516  0.0508  0.7415
 5866UDC     C164516  19.457   8.523  17.755  0.2605  0.5505  0.1959
 5866UDC     C264517  19.319   8.464  17.714  1.8316  0.9634  1.1038
 5866UDC     C364518  19.250   8.516  17.582  0.7063  0.2502  0.6348
 5866UDC     C464519  19.101   8.530  17.611 -0.2568 -0.1844 -0.4743
 5866UDC     C564520  19.015   8.404  17.598 -0.8957 -0.0528  0.5401
 5866UDC     C664521  18.871   8.436  17.579 -0.3227  0.2168 -0.3604
 5866UDC     C764522  18.756   8.330  17.562  0.3658 -0.3669  0.4549
 5866UDC     C864523  18.790   8.183  17.510 -0.5557 -0.2923  1.0111
 5866UDC     C964524  18.676   8.099  17.446 -0.2302  0.3626 -0.2699
 5866UDC    C1064525  18.739   8.020  17.326 -0.1643 -0.1063  0.0113
 5866UDC    C1164526  18.643   7.905  17.288  0.1379  0.4052  0.7790
 5867UDC     C164527   2.101  10.883   9.686  0.9470 -0.2041  0.2639
 5867UDC     C264528   1.950  10.896   9.681  0.1869 -0.1651  0.5262
 5867UDC     C364529   1.905  11.015   9.590 -0.3469 -0.3497 -0.6140
 5867UDC     C464530   1.758  11.041   9.626 -0.8901  0.0284  0.1497
 5867UDC     C564531   1.739  11.069   9.780 -0.2452  0.2283 -0.5150
 5867UDC     C664532   1.589  11.086   9.810 -0.3183 -0.7300  0.4755
 5867UDC     C764533   1.546  11.108   9.950 -0.5882  0.2998 -0.7991
 5867UDC     C864534   1.625  11.219  10.016 -0.3165 -0.4973  0.2003
 5867UDC     C964535   1.544  11.329  10.078  0.3953 -0.4802  0.1086
 5867UDC    C1064536   1.636  11.421  10.151 -0.2304 -1.5696  0.1566
 5867UDC    C1164537   1.564  11.545  10.196  1.5554 -0.1452 -0.7187
 5868UDC     C164538  11.256   5.729  18.990  0.5043 -0.1976 -0.6662
 5868UDC     C264539  11.365   5.699  19.096 -0.2810  0.1258  1.5749
 5868UDC     C364540  11.324   5.627  19.230  0.1363  0.1591  0.3250
 5868UDC     C464541  11.442   5.614  19.331  0.5588  0.1293  0.2241
 5868UDC     C564542  11.396   5.550  19.462  0.8876 -0.5575 -0.0423
 5868UDC     C664543  11.502   5.534  19.571 -1.3519 -0.5187 -0.4673
 5868UDC     C764544  11.606   5.434  19.524 -0.0759 -0.3269 -0.5581
 5868UDC     C864545  11.552   5.296  19.560  0.2587 -0.1025  0.2324
 5868UDC     C964546  11.528   5.225  19.429 -0.3861 -0.5345 -0.0867
 5868UDC    C1064547  11.652   5.146  19.376  0.2381  0.0430 -0.6007
 5868UDC    C1164548  11.642   5.078  19.243 -0.5994 -1.1141  1.8254
 5869UDC     C164549   1.563   2.055   1.455  1.0219  0.7008 -0.2183
 5869UDC     C264550   1.452   2.152   1.461 -0.6593 -0.6740 -0.1120
 5869UDC     C364551   1.473   2.307   1.448  0.4394 -0.4629  0.0329
 5869UDC     C464552   1.342   2.381   1.473 -0.1682 -0.7466 -0.4010
 5869UDC     C564553   1.231   2.322   1.391 -0.3863  0.1583  0.4211
 5869UDC     C664554   1.114   2.283   1.486  1.0173 -0.1836 -0.1671
 5869UDC     C764555   0.983   2.217   1.421 -0.0339 -0.4089  1.1525
 5869UDC     C864556   0.928   2.310   1.303 -0.5918  0.4578  0.1135
 5869UDC     C964557   0.853   2.244   1.178  0.2500 -0.8600 -0.1765
 5869UDC    C1064558   0.875   2.305   1.040  0.1334 -0.2875  0.3881
 5869UDC    C1164559   0.823   2.248   0.912  0.7803  0.0731  0.1485
 5870UDC     C164560  11.759  12.503  18.524  0.3236  1.0859 -1.0516
 5870UDC     C264561  11.872  12.463  18.431 -0.0744 -0.0334  0.2664
 5870UDC     C364562  11.885  12.551  18.303  0.8811  0.8279  0.1428
 5870UDC     C464563  11.877  12.705  18.322 -1.0721  1.0967 -0.1284
 5870UDC     C564564  11.892  12.789  18.197 -0.8973  0.1219  0.2441
 5870UDC     C664565  11.994  12.731  18.092  1.5504  0.0852 -0.3259
 5870UDC     C764566  12.144  12.707  18.114 -0.6915 -0.9261 -0.7463
 5870UDC     C864567  12.218  12.714  17.986 -0.6105 -0.4884  1.3081
 5870UDC     C964568  12.372  12.698  17.974  0.0353 -0.8606  0.0872
 5870UDC    C1064569  12.426  12.701  17.831  0.1778  0.1461  0.0190
 5870UDC    C1164570  12.363  12.823  17.766  0.7453 -0.5390  0.9852
 5871UDC     C164571  15.631   7.413  10.321 -0.3530  0.3598 -0.1212
 5871UDC     C264572  15.617   7.532  10.412 -0.1943  0.5352  0.2965
 5871UDC     C364573  15.647   7.669  10.356  0.3123  0.4381 -0.3261
 5871UDC     C464574  15.628   7.782  10.453  0.4620 -0.8539 -0.1807
 5871UDC     C564575  15.725   7.901  10.420 -0.1438  0.3554  0.1902
 5871UDC     C664576  15.721   8.010  10.525  0.9694 -0.8776  0.3996
 5871UDC     C764577  15.723   8.148  10.459 -0.4593 -1.0846  0.3772
 5871UDC     C864578  15.619   8.242  10.526 -0.5227  1.5436 -0.7229
 5871UDC     C964579  15.622   8.380  10.463 -0.1331  0.6532 -0.9067
 5871UDC    C1064580  15.494   8.462  10.495  0.0276 -0.6162  0.8506
 5871UDC    C1164581  15.519   8.574  10.588 -0.9442  0.8789  0.6157
 5872UDC     C164582   6.348  12.020   6.665 -0.5644  0.0322 -0.4300
 5872UDC     C264583   6.436  11.919   6.743  0.2191 -0.9074  0.6475
 5872UDC     C364584   6.362  11.803   6.811  0.3854 -0.4505  0.2911
 5872UDC     C464585   6.461  11.695   6.841 -0.3907 -0.2120 -1.2647
 5872UDC     C564586   6.444  11.649   6.991  0.6404 -0.0740  0.0280
 5872UDC     C664587   6.538  11.525   7.026  0.1004 -0.6029  1.3451
 5872UDC     C764588   6.553  11.436   6.901 -0.3259 -0.5021 -0.0005
 5872UDC     C864589   6.627  11.298   6.921  0.2280 -0.5814  0.4727
 5872UDC     C964590   6.551  11.186   6.989  0.5710  0.2768  0.3191
 5872UDC    C1064591   6.621  11.055   6.961 -0.3799 -0.3319 -0.1921
 5872UDC    C1164592   6.717  11.001   7.060 -0.1281 -0.6923 -0.4153
 5873UDC     C164593   9.124  10.003   9.089  0.5556 -0.7364 -0.1395
 5873UDC     C264594   8.997  10.002   9.176  1.0472 -0.9679 -0.4662
 5873UDC     C364595   8.860  10.024   9.110  0.3430 -0.2711 -0.7290
 5873UDC     C464596   8.737  10.029   9.207  0.1377 -0.3287  0.6114
 5873UDC     C564597   8.699   9.892   9.257  0.1606 -0.3686 -0.7051
 5873UDC     C664598   8.645   9.801   9.150 -0.5789 -0.0044  0.7195
 5873UDC     C764599   8.517   9.843   9.082  0.2990  0.0045 -0.4469
 5873UDC     C864600   8.407   9.834   9.185  0.9630 -0.8591 -0.8008
 5873UDC     C964601   8.278   9.911   9.139 -0.3953 -0.2363 -0.2206
 5873UDC    C1064602   8.218   9.885   8.993 -0.0059  0.0124  0.1779
 5873UDC    C1164603   8.080   9.955   8.975 -0.0727 -0.6231  0.5741
 5874UDC     C164604  19.793  17.482  19.397 -0.3455 -0.7576 -0.0778
 5874UDC     C264605  19.827  17.335  19.406  0.9176 -0.0324  0.6700
 5874UDC     C364606  19.733  17.254  19.494  1.7144  0.6140 -0.3197
 5874UDC     C464607  19.773  17.104  19.485 -0.3265  0.6412 -0.7917
 5874UDC     C564608  19.774  17.054  19.634 -0.4119  0.7631  1.0145
 5874UDC     C664609  19.882  16.958  19.677  0.0832  0.2890 -0.3356
 5874UDC     C764610  19.853  16.892  19.814  0.4778 -0.9099  0.1275
 5874UDC     C864611  19.852  16.991  19.933 -0.8778 -1.4064  0.8566
 5874UDC     C964612  19.866  16.900  20.056 -1.1707 -0.6112 -0.7053
 5874UDC    C1064613  19.828  16.959  20.194  0.4987  0.2070 -0.8155
 5874UDC    C1164614  19.845  16.873  20.323 -0.4079  0.6531  0.6528
 5875UDC     C164615  15.607   1.398   7.042 -0.2154  0.1684  0.3613
 5875UDC     C264616  15.506   1.301   7.095  0.4403 -0.2336  0.1480
 5875UDC     C364617  15.384   1.274   7.003 -0.1972  0.3687  0.1089
 5875UDC     C464618  15.421   1.185   6.882  0.4586 -0.4288 -0.4399
 5875UDC     C564619  15.304   1.127   6.796  0.9010  1.2325 -1.0291
 5875UDC     C664620  15.347   1.092   6.653  0.2006 -0.1954 -0.3470
 5875UDC     C764621  15.486   1.165   6.623 -0.3495 -0.0672  0.2306
 5875UDC     C864622  15.542   1.171   6.477 -0.0828 -0.8837 -0.4209
 5875UDC     C964623  15.657   1.075   6.465  0.2396  1.3702  0.3901
 5875UDC    C1064624  15.607   0.928   6.479 -0.0568 -0.7018  0.6020
 5875UDC    C1164625  15.723   0.837   6.475  0.2175  0.5436 -0.0397
 5876UDC     C164626  15.520   3.246   5.245 -0.5898  0.0280 -0.0749
 5876UDC     C264627  15.578   3.292   5.115 -0.4139  0.2935  0.4202
 5876UDC     C364628  15.663   3.181   5.050  0.6971 -0.0550 -0.2527
 5876UDC     C464629  15.700   3.269   4.929  0.4897  0.2842  0.1061
 5876UDC     C564630  15.748   3.167   4.833  0.3301  0.1211  1.1679
 5876UDC     C664631  15.790   3.233   4.704  0.2501 -1.2330 -0.0826
 5876UDC     C764632  15.900   3.143   4.647  0.2016 -1.5963 -0.1049
 5876UDC     C864633  16.034   3.172   4.720  0.4628 -0.9983 -0.1343
 5876UDC     C964634  16.049   3.329   4.720  0.6266  0.2777  0.4401
 5876UDC    C1064635  16.189   3.371   4.751 -0.0832  0.0635 -0.1034
 5876UDC    C1164636  16.189   3.522   4.783  0.1012 -0.9488 -0.4302
 5877UDC     C164637   1.879   1.522   9.102  0.4311 -0.3393 -0.4065
 5877UDC     C264638   1.780   1.563   8.990 -0.0514  0.3032 -0.2302
 5877UDC     C364639   1.634   1.532   9.006 -0.2096 -0.0909  0.6044
 5877UDC     C464640   1.610   1.383   9.029  1.0678 -0.7625  0.4712
 5877UDC     C564641   1.461   1.352   9.023  0.1424 -0.1574 -0.5158
 5877UDC     C664642   1.420   1.220   9.098 -0.5584 -0.4280  0.6050
 5877UDC     C764643   1.286   1.215   9.184  0.0952  0.7465  0.1746
 5877UDC     C864644   1.274   1.070   9.238  0.4186  0.1789  0.4500
 5877UDC     C964645   1.185   0.983   9.148  0.5953  0.1238  1.0093
 5877UDC    C1064646   1.115   0.873   9.222  0.7764  0.4660  1.4516
 5877UDC    C1164647   1.196   0.814   9.332 -0.5694 -0.8135  0.0377
 5878UDC     C164648  12.161  19.566   9.487  1.1380 -0.2504  0.1684
 5878UDC     C264649  12.156  19.484   9.358 -0.3757  0.2136 -0.0894
 5878UDC     C364650  12.040  19.384   9.343  0.1474  0.0123  0.4726
 5878UDC     C464651  12.050  19.284   9.226  0.7684 -1.1739 -1.3861
 5878UDC     C564652  12.036  19.337   9.082 -0.2770  0.2496 -0.9982
 5878UDC     C664653  11.920  19.432   9.066 -0.8015 -0.0192 -1.3284
 5878UDC     C764654  11.781  19.382   9.043  0.1802 -0.1426  0.0388
 5878UDC     C864655  11.688  19.484   9.104 -0.8414  0.1491 -0.2444
 5878UDC     C964656  11.537  19.487   9.091 -0.1072 -0.6573 -0.2751
 5878UDC    C1064657  11.463  19.532   9.218  1.3175 -0.4740  0.0670
 5878UDC    C1164658  11.449  19.421   9.311  0.2559  0.9345 -0.6310
 5879UDC     C164659   2.418   4.961  13.779 -0.2071  0.1793 -0.1146
 5879UDC     C264660   2.509   4.835  13.747  0.0472 -0.5208 -1.0364
 5879UDC     C364661   2.618   4.797  13.845  0.3359  0.0829  0.2577
 5879UDC     C464662   2.727   4.900  13.822  0.1631  0.0079 -0.8056
 5879UDC     C564663   2.829   4.890  13.936  0.4026  1.1434 -0.7209
 5879UDC     C664664   2.923   5.001  13.970 -1.3057 -0.0232 -0.3646
 5879UDC     C764665   3.059   4.947  14.037  0.8126 -1.5420  0.3154
 5879UDC     C864666   3.055   4.977  14.195  0.0582  0.5086  0.2772
 5879UDC     C964667   3.118   4.876  14.292  0.7439 -0.0150  0.5473
 5879UDC    C1064668   3.064   4.909  14.431  0.3406  0.2955  0.0832
 5879UDC    C1164669   2.918   4.890  14.466  0.9117  0.5385  0.6168
 5880UDC     C164670   8.595  10.307  14.312 -0.9057  0.6500 -0.1620
 5880UDC     C264671   8.679  10.343  14.441  1.1412  1.1324  1.3401
 5880UDC     C364672   8.834  10.329  14.427 -0.0947  0.7203 -0.6504
 5880UDC     C464673   8.928  10.377  14.550  1.1063 -0.6835  1.4190
 5880UDC     C564674   8.968  10.258  14.633 -0.0907 -0.7573  0.2880
 5880UDC     C664675   9.031  10.333  14.753  1.1892 -0.1380 -0.2094
 5880UDC     C764676   9.159  10.406  14.704 -0.0092  0.6440  0.9903
 5880UDC     C864677   9.259  10.451  14.807  0.3585 -0.1353 -0.5781
 5880UDC     C964678   9.379  10.537  14.755 -0.6807  1.0190  1.4102
 5880UDC    C1064679   9.444  10.468  14.630  0.5894 -0.7086 -0.1996
 5880UDC    C1164680   9.571  10.512  14.555  0.4164 -1.1643 -0.3108
 5881UDC     C164681  19.416  14.021  10.673 -0.3845  0.2923  0.2686
 5881UDC     C264682  19.336  14.115  10.578 -0.2666 -0.4949  0.4612
 5881UDC     C364683  19.219  14.053  10.507 -0.5371  0.7109 -0.5396
 5881UDC     C464684  19.135  14.163  10.448  0.0428  0.4317  0.6805
 5881UDC     C564685  19.207  14.257  10.353 -0.0999  0.7169  0.0627
 5881UDC     C664686  19.142  14.294  10.224  1.4128  0.3539  0.0563
 5881UDC     C764687  19.172  14.441  10.190 -0.2628 -0.3928  0.7322
 5881UDC     C864688  19.127  14.479  10.042 -0.1211 -0.6911 -0.9588
 5881UDC     C964689  18.978  14.444  10.052  1.1994  0.4994  0.0197
 5881UDC    C1064690  18.895  14.498   9.934  1.2700 -0.2267  1.0344
 5881UDC    C1164691  18.887  14.433   9.791  0.8689 -0.0941 -0.2914
 5882UDC     C164692  11.265   7.953  10.601  1.0054  0.4201  0.2079
 5882UDC     C264693  11.285   7.822  10.531  1.0160 -0.7630  1.3160
 5882UDC     C364694  11.310   7.824  10.379  1.1546  0.3323 -0.6975
 5882UDC     C464695  11.455   7.828  10.335 -0.9418  0.5608 -0.5379
 5882UDC     C564696  11.459   7.899  10.196 -0.3672 -0.5278 -0.1418
 5882UDC     C664697  11.592   7.868  10.117 -0.3084 -0.0407  0.6291
 5882UDC     C764698  11.717   7.855  10.210 -1.2637  0.1267  1.2450
 5882UDC     C864699  11.850   7.845  10.131  0.2923  0.6562 -0.9935
 5882UDC     C964700  11.952   7.899  10.232  1.2982 -1.2251 -0.5208
 5882UDC    C1064701  12.088   7.922  10.165 -0.4457  0.0438  1.0352
 5882UDC    C1164702  12.151   7.793  10.104 -0.1748 -0.0152  0.3033
 5883UDC     C164703   4.181  17.488  19.190  0.0707  0.6287  0.3870
 5883UDC     C264704   4.189  17.388  19.309  0.1356  0.9315 -0.3599
 5883UDC     C364705   4.097  17.418  19.425 -0.5290  0.9194  0.1085
 5883UDC     C464706   4.052  17.563  19.418 -0.8600 -0.5107 -0.9099
 5883UDC     C564707   4.045  17.646  19.547  0.3212  0.7709  0.2847
 5883UDC     C664708   4.028  17.792  19.500 -0.6113 -0.3162  0.7410
 5883UDC     C764709   3.971  17.897  19.600 -0.5399 -0.6624  1.4980
 5883UDC     C864710   3.954  18.035  19.529  0.7029  0.1091 -0.1656
 5883UDC     C964711   3.904  18.153  19.622 -1.0711 -0.9791 -0.1099
 5883UDC    C1064712   3.900  18.286  19.549 -0.4343 -1.1829  0.4109
 5883UDC    C1164713   3.843  18.405  19.624  0.1427 -0.9163 -1.1997
 5884UDC     C164714   9.681   6.636  18.552 -0.3087  0.4172 -0.0812
 5884UDC     C264715   9.728   6.531  18.446 -1.0798 -0.1198 -0.2177
 5884UDC     C364716   9.848   6.586  18.377 -0.6588  0.1193  0.8150
 5884UDC     C464717   9.913   6.490  18.277  0.2338 -0.1306 -0.6659
 5884UDC     C564718   9.823   6.421  18.174  0.2109 -0.7118  0.2174
 5884UDC     C664719   9.922   6.326  18.092  0.5235 -1.7498 -0.0187
 5884UDC     C764720  10.012   6.238  18.172  0.2962  0.1731  0.7300
 5884UDC     C864721  10.042   6.107  18.089  0.1505  0.9153  0.0818
 5884UDC     C964722  10.116   6.013  18.194 -0.2023 -0.0877  0.1253
 5884UDC    C1064723  10.212   5.908  18.136 -0.5195 -0.7702 -0.2501
 5884UDC    C1164724  10.289   5.808  18.224 -0.4073  0.1066  0.2910
 5885UDC     C164725   7.711   6.904   5.344 -0.0460 -0.3539 -0.5384
 5885UDC     C264726   7.695   6.918   5.495  0.6247 -1.0942 -0.0084
 5885UDC     C364727   7.593   7.024   5.538 -0.3845 -0.5235  0.4990
 5885UDC     C464728   7.552   6.989   5.683 -0.0058 -0.0659  0.1185
 5885UDC     C564729   7.520   7.112   5.764 -0.0278  0.7378  0.1901
 5885UDC     C664730   7.408   7.213   5.723 -0.3005  0.1362  0.2361
 5885UDC     C764731   7.414   7.347   5.793 -0.0271  0.7777 -0.0340
 5885UDC     C864732   7.297   7.438   5.776  0.1560  0.6920 -0.9575
 5885UDC     C964733   7.311   7.581   5.721  0.9641  0.0955  0.1645
 5885UDC    C1064734   7.356   7.671   5.837 -0.1922 -0.3558 -0.2945
 5885UDC    C1164735   7.378   7.819   5.795  0.2727 -1.2773  0.0103
 5886UDC     C164736   4.898  14.031  14.000  0.3007  1.2491  0.3707
 5886UDC     C264737   4.743  14.026  14.004 -0.4908 -0.0076  0.1460
 5886UDC     C364738   4.679  13.980  14.139 -0.0567  0.0959  0.2505
 5886UDC     C464739   4.620  13.839  14.121  0.5674  0.3965 -0.3138
 5886UDC     C564740   4.701  13.733  14.038 -0.1916  0.2088  0.7545
 5886UDC     C664741   4.666  13.590  14.088  1.2623 -0.2831 -0.5031
 5886UDC     C764742   4.771  13.489  14.112  0.6238  0.0287 -0.2342
 5886UDC     C864743   4.701  13.386  14.201 -0.0312 -0.7438 -0.0746
 5886UDC     C964744   4.779  13.268  14.261  0.3383  0.1471 -0.3862
 5886UDC    C1064745   4.907  13.311  14.322 -0.5610  0.5376 -0.4655
 5886UDC    C1164746   5.004  13.203  14.373 -0.4362 -0.8127 -0.2459
 5887UDC     C164747  18.078   7.017  17.360 -0.8549 -0.0837 -0.8748
 5887UDC     C264748  17.963   6.914  17.342 -0.3910  0.7266 -0.5054
 5887UDC     C364749  17.996   6.807  17.240 -0.5262  0.5008  0.3548
 5887UDC     C464750  17.985   6.865  17.098 -0.4283  0.7283 -0.2424
 5887UDC     C564751  18.060   6.771  17.000  0.8325 -0.8626  0.3510
 5887UDC     C664752  18.091   6.824  16.864  0.8293 -0.1157  0.4927
 5887UDC     C764753  18.157   6.714  16.775  0.4576  0.3849  0.0205
 5887UDC     C864754  18.298   6.639  16.788 -0.2175 -0.2731 -0.3634
 5887UDC     C964755  18.388   6.635  16.658 -0.3945 -0.7442 -1.3058
 5887UDC    C1064756  18.506   6.537  16.689  1.1224  0.2592 -0.6312
 5887UDC    C1164757  18.614   6.517  16.582 -0.0933  0.0694 -0.1575
 5888UDC     C164758  19.938  14.020  12.010  0.0867  0.8309 -0.4979
 5888UDC     C264759  19.947  13.914  12.122  0.0584 -0.6308 -0.3664
 5888UDC     C364760  20.031  13.936  12.253  0.5883  0.4012 -1.2053
 5888UDC     C464761  19.985  13.835  12.360  0.1927 -0.5984  0.6215
 5888UDC     C564762  20.070  13.829  12.488 -0.0911  0.2792 -1.0724
 5888UDC     C664763  20.097  13.962  12.567  0.6681  0.1911  0.1144
 5888UDC     C764764  20.175  13.941  12.696  0.2424  0.3557  0.5566
 5888UDC     C864765  20.304  14.011  12.674  0.2058 -0.2665  0.5247
 5888UDC     C964766  20.373  14.038  12.807  0.6124  0.1892 -0.8444
 5888UDC    C1064767  20.496  14.130  12.816 -0.8234  0.3966 -0.9896
 5888UDC    C1164768  20.450  14.271  12.764  0.5703 -0.3167  0.5757
 5889UDC     C164769  11.036  17.484   9.834  0.3323  0.8003  0.0431
 5889UDC     C264770  11.166  17.445   9.899  0.2405  0.0580  0.2256
 5889UDC     C364771  11.261  17.567   9.911 -0.5901  1.2412 -0.2250
 5889UDC     C464772  11.225  17.654  10.030  0.0667 -0.2967 -0.1032
 5889UDC     C564773  11.270  17.803  10.002 -0.3891 -0.6885 -1.0565
 5889UDC     C664774  11.247  17.916  10.108 -1.4088  0.5531 -0.1961
 5889UDC     C764775  11.270  18.065  10.062  0.1938  0.3122  2.0345
 5889UDC     C864776  11.236  18.172  10.166  0.2057 -0.7536 -0.1880
 5889UDC     C964777  11.123  18.131  10.254 -0.5464  1.2245  0.4468
 5889UDC    C1064778  11.062  18.226  10.364  0.5674  0.3237  0.7995
 5889UDC    C1164779  10.992  18.161  10.484  0.8120 -0.5891 -0.3658
 5890UDC     C164780  12.285  11.873   9.355 -0.1488  0.0628  0.7648
 5890UDC     C264781  12.244  11.835   9.210  0.4651 -0.0326 -1.2548
 5890UDC     C364782  12.357  11.787   9.118 -0.0633  0.0098  0.2473
 5890UDC     C464783  12.310  11.745   8.977 -0.8208  0.3753  0.2793
 5890UDC     C564784  12.308  11.871   8.885  0.2015 -0.0048  0.1292
 5890UDC     C664785  12.197  11.864   8.779 -0.1836 -0.1427 -0.5363
 5890UDC     C764786  12.207  11.747   8.674  0.2749 -0.6309 -0.3698
 5890UDC     C864787  12.289  11.794   8.554  0.0804  0.6531  0.1773
 5890UDC     C964788  12.362  11.682   8.473  0.8441  1.4235  0.5506
 5890UDC    C1064789  12.326  11.704   8.324 -0.1569  0.5878 -0.4265
 5890UDC    C1164790  12.297  11.853   8.319  0.5382 -0.6990  0.7356
 5891UDC     C164791  11.806   9.361  14.251  0.2265  0.4757  0.7936
 5891UDC     C264792  11.746   9.231  14.315 -0.6345 -0.3921  0.4710
 5891UDC     C364793  11.600   9.223  14.350  1.1092 -0.1131  0.7201
 5891UDC     C464794  11.568   9.107  14.446 -0.1497 -0.1710  0.0742
 5891UDC     C564795  11.425   9.079  14.483 -0.1333 -0.2005  0.1665
 5891UDC     C664796  11.439   8.969  14.591 -0.2749  0.0444 -0.3909
 5891UDC     C764797  11.321   8.906  14.670  1.3285 -0.4944 -0.1526
 5891UDC     C864798  11.268   9.014  14.771 -0.2609 -0.3178 -0.0893
 5891UDC     C964799  11.264   8.967  14.919  1.1410  0.2973  0.9390
 5891UDC    C1064800  11.399   8.971  14.981 -0.0827  0.3008  1.2361
 5891UDC    C1164801  11.376   8.947  15.123 -0.5506 -0.3115 -0.7126
 5892UDC     C164802   9.984  18.586  18.501  0.1729 -1.6509 -0.8862
 5892UDC     C264803   9.915  18.453  18.547 -0.5162  0.8136  0.0383
 5892UDC     C364804  10.013  18.334  18.551 -0.2603  0.0320  0.4333
 5892UDC     C464805   9.923  18.207  18.575 -0.0740 -0.1476  0.7608
 5892UDC     C564806   9.917  18.115  18.455  0.0645 -0.7486  0.2424
 5892UDC     C664807   9.890  17.974  18.510 -0.2253 -1.2242  0.3703
 5892UDC     C764808   9.961  17.856  18.436  0.4399 -0.2095 -0.1423
 5892UDC     C864809   9.996  17.733  18.530  0.1527  0.8112  0.6905
 5892UDC     C964810  10.072  17.621  18.463 -0.4647  0.5848 -0.1647
 5892UDC    C1064811  10.144  17.519  18.551  0.1161  0.2022  0.4349
 5892UDC    C1164812  10.297  17.536  18.534  0.1181  0.8115 -0.6155
 5893UDC     C164813   2.981  12.879  11.428 -0.2247 -0.7161 -0.1576
 5893UDC     C264814   3.077  12.908  11.544  0.2322  0.3684  0.6793
 5893UDC     C364815   3.190  12.801  11.540  0.4897  0.9952 -0.2043
 5893UDC     C464816   3.261  12.758  11.669 -0.3004 -0.2367  0.1720
 5893UDC     C564817   3.381  12.666  11.647  0.5354 -0.6984 -0.1738
 5893UDC     C664818   3.347  12.547  11.562  0.1850 -0.0480 -0.7786
 5893UDC     C764819   3.233  12.466  11.621  0.9809 -0.6983  0.2440
 5893UDC     C864820   3.245  12.347  11.711  0.7711  0.5381  0.5591
 5893UDC     C964821   3.323  12.221  11.671  0.2885  0.5529 -0.5713
 5893UDC    C1064822   3.470  12.237  11.670 -1.0782  1.5645  1.3404
 5893UDC    C1164823   3.540  12.106  11.655 -0.0902  0.6996  0.3156
 5894UDC     C164824  16.423   4.360   0.765 -1.0688  0.4367 -0.0933
 5894UDC     C264825  16.459   4.354   0.915 -0.6416 -0.3152 -0.7689
 5894UDC     C364826  16.418   4.222   0.993  0.3037 -0.6604  1.4482
 5894UDC     C464827  16.444   4.236   1.145  0.4571 -1.6746  0.9389
 5894UDC     C564828  16.428   4.377   1.206 -0.6530  0.5312  0.3139
 5894UDC     C664829  16.457   4.391   1.355 -0.6117 -0.1258 -0.0099
 5894UDC     C764830  16.419   4.256   1.430 -1.6609 -0.2832  1.3292
 5894UDC     C864831  16.554   4.196   1.480  0.1561 -1.5595  0.9655
 5894UDC     C964832  16.530   4.065   1.564 -0.9197 -0.0705 -0.3296
 5894UDC    C1064833  16.557   3.926   1.498  0.5593  0.0129  0.9602
 5894UDC    C1164834  16.703   3.894   1.470 -0.9404 -0.1230 -0.3076
 5895UDC     C164835  13.029   7.693   7.545  1.5011  0.0474  0.2856
 5895UDC     C264836  13.123   7.593   7.483 -0.6617  1.0528 -0.0242
 5895UDC     C364837  13.268   7.633   7.428 -0.6639  0.9243 -0.1580
 5895UDC     C464838  13.269   7.756   7.336 -0.1615 -0.4064  1.3220
 5895UDC     C564839  13.403   7.800   7.268 -0.1821  0.5788 -0.1171
 5895UDC     C664840  13.508   7.856   7.368  0.6713  0.3821 -0.2559
 5895UDC     C764841  13.615   7.748   7.416 -0.2862 -0.4614  0.6411
 5895UDC     C864842  13.697   7.814   7.527 -0.5751 -1.5222 -0.1306
 5895UDC     C964843  13.615   7.866   7.645  0.6599 -0.0415  0.7506
 5895UDC    C1064844  13.699   7.982   7.709  0.1026  0.5055 -0.9629
 5895UDC    C1164845  13.741   8.080   7.609 -0.1021 -0.2160 -0.4052
 5896UDC     C164846   0.768   0.488   8.249  0.1954 -0.1884 -0.2613
 5896UDC     C264847   0.799   0.581   8.371 -0.1467 -0.4836  0.5543
 5896UDC     C364848   0.677   0.609   8.457  0.4261 -0.5200 -0.7235
 5896UDC     C464849   0.653   0.765   8.470  0.7747  0.8195  0.6200
 5896UDC     C564850   0.725   0.821   8.604 -0.1768  0.8759 -0.6422
 5896UDC     C664851   0.716   0.744   8.742 -0.0804 -0.3160  0.0335
 5896UDC     C764852   0.674   0.832   8.865  0.2795 -0.3519  0.1843
 5896UDC     C864853   0.620   0.772   8.991 -0.2344 -0.5272 -0.7124
 5896UDC     C964854   0.735   0.751   9.096 -0.9115  0.6227  0.6097
 5896UDC    C1064855   0.661   0.705   9.222  0.6186  0.0268  0.2080
 5896UDC    C1164856   0.548   0.607   9.190  1.1502 -0.9368  0.2534
 5897UDC     C164857   8.792  12.547  12.191 -0.3115  0.0812  0.9107
 5897UDC     C264858   8.833  12.527  12.047  0.1153 -0.7160 -0.0960
 5897UDC     C364859   8.947  12.430  12.042 -0.0035 -0.2905  0.3950
 5897UDC     C464860   9.064  12.453  12.129 -0.4101 -0.4747  0.4575
 5897UDC     C564861   9.155  12.324  12.117 -1.0205 -0.3492 -1.1518
 5897UDC     C664862   9.254  12.322  11.999  0.1093 -0.0218 -0.2279
 5897UDC     C764863   9.338  12.194  11.970 -0.9228 -0.8804  0.0340
 5897UDC     C864864   9.411  12.107  12.071 -0.3664 -0.1123  0.5428
 5897UDC     C964865   9.461  12.179  12.192 -0.5899 -0.3880 -0.6474
 5897UDC    C1064866   9.480  12.086  12.314 -0.4391  0.0861 -0.6461
 5897UDC    C1164867   9.464  12.170  12.448 -0.2547 -0.1891 -0.1448
 5898UDC     C164868  10.932   9.629  19.094  0.7636  0.1169 -0.4913
 5898UDC     C264869  11.054   9.717  19.053  0.2555 -0.9188 -0.2974
 5898UDC     C364870  11.175   9.642  18.986 -0.3747 -0.0813 -0.0586
 5898UDC     C464871  11.264   9.750  18.935  0.1991 -0.1455  0.0143
 5898UDC     C564872  11.351   9.719  18.821 -0.6413 -0.2998  0.2179
 5898UDC     C664873  11.480   9.810  18.816  0.6348  0.6428  1.2519
 5898UDC     C764874  11.471   9.940  18.739  0.7980  0.1255 -0.8983
 5898UDC     C864875  11.605  10.005  18.744  0.1613  0.3551  0.0115
 5898UDC     C964876  11.614  10.157  18.721 -0.2373  0.7882 -0.6843
 5898UDC    C1064877  11.574  10.181  18.572 -1.0388  0.1050  0.7541
 5898UDC    C1164878  11.613  10.086  18.458  0.5851  0.8601 -1.0226
 5899UDC     C164879  15.580   1.499  13.002 -0.6995 -0.1062 -0.5527
 5899UDC     C264880  15.560   1.625  13.086 -0.0371 -1.1894 -0.2957
 5899UDC     C364881  15.439   1.625  13.181 -0.4485  0.9646  0.3342
 5899UDC     C464882  15.342   1.522  13.136  0.5840  0.6255 -0.3939
 5899UDC     C564883  15.226   1.494  13.236 -1.2647 -0.7846  0.1361
 5899UDC     C664884  15.141   1.370  13.214 -0.0651 -0.7376  0.6187
 5899UDC     C764885  15.051   1.407  13.094 -0.4293  0.1736 -0.1799
 5899UDC     C864886  14.932   1.309  13.074  0.3390 -0.0861 -0.1021
 5899UDC     C964887  14.825   1.313  13.189  0.9308 -0.5236  0.3162
 5899UDC    C1064888  14.708   1.256  13.101  0.8082  0.4505 -0.4565
 5899UDC    C1164889  14.616   1.343  13.010  0.1809  0.4165  0.6496
 5900UDC     C164890   4.751  17.453  17.340  0.4512 -0.3653  0.2322
 5900UDC     C264891   4.787  17.391  17.202 -0.5371 -0.3073 -0.3369
 5900UDC     C364892   4.868  17.499  17.129  0.0785 -0.2210 -1.7749
 5900UDC     C464893   4.917  17.460  16.985  0.4178 -1.3230  0.9332
 5900UDC     C564894   5.034  17.366  16.975 -0.0177  0.9273  0.3167
 5900UDC     C664895   5.102  17.339  16.837 -0.1357 -0.4511  0.5707
 5900UDC     C764896   5.012  17.271  16.733 -0.9613 -0.1416 -0.4704
 5900UDC     C864897   4.874  17.315  16.678  0.4425  0.6842 -0.3299
 5900UDC     C964898   4.856  17.236  16.548 -0.0837 -1.0972  0.7263
 5900UDC    C1064899   4.959  17.301  16.454 -0.0011 -0.3154  0.0856
 5900UDC    C1164900   4.969  17.281  16.309 -0.5471  0.0329  0.4526
 5901UDC     C164901   7.216  18.339  12.317  0.5526 -0.5946 -0.4555
 5901UDC     C264902   7.105  18.392  12.225  0.1206  0.1008  0.3552
 5901UDC     C364903   7.116  18.553  12.206  0.0049  0.6105 -0.6275
 5901UDC     C464904   7.106  18.621  12.339 -0.2709  0.1955 -0.3518
 5901UDC     C564905   7.121  18.775  12.328  0.1345  1.5613 -0.6942
 5901UDC     C664906   7.260  18.821  12.322 -0.6946 -1.2105 -0.6680
 5901UDC     C764907   7.341  18.789  12.454 -0.5852  0.5756  0.8759
 5901UDC     C864908   7.454  18.882  12.450 -1.0061 -0.2027  0.2391
 5901UDC     C964909   7.407  19.028  12.411 -0.1241 -0.5931 -0.2380
 5901UDC    C1064910   7.442  19.143  12.508 -0.0875 -0.4505  0.6468
 5901UDC    C1164911   7.466  19.288  12.451 -0.0476 -0.1943 -0.9271
 5902UDC     C164912   8.439  15.133  15.566 -0.3893 -0.0411 -0.4094
 5902UDC     C264913   8.428  15.005  15.651  0.7939  0.0804 -0.0864
 5902UDC     C364914   8.297  14.952  15.587 -1.3160  1.3523 -0.0045
 5902UDC     C464915   8.248  14.821  15.663 -0.2634  0.4084  0.3363
 5902UDC     C564916   8.101  14.789  15.652 -0.6662  0.4562  0.5272
 5902UDC     C664917   8.057  14.673  15.744 -0.9017  0.4301  0.4482
 5902UDC     C764918   7.928  14.710  15.810 -0.7262  0.8558  0.0206
 5902UDC     C864919   7.928  14.849  15.874  0.5025 -0.7357 -0.3246
 5902UDC     C964920   7.794  14.901  15.933 -0.8747 -0.1378  0.4856
 5902UDC    C1064921   7.672  14.889  15.840 -0.2583 -0.4495  0.3343
 5902UDC    C1164922   7.554  14.994  15.865  0.6259  0.0652  0.9950
 5903UDC     C164923  14.242  10.740   1.207  0.1066 -0.3684  0.3624
 5903UDC     C264924  14.227  10.596   1.243 -0.1514 -0.9160  0.9122
 5903UDC     C364925  14.115  10.572   1.346  0.0355 -0.0820  0.4129
 5903UDC     C464926  14.100  10.427   1.405  0.0685  0.8663  0.8292
 5903UDC     C564927  14.022  10.430   1.535 -0.1025  0.2249 -0.1539
 5903UDC     C664928  14.101  10.389   1.665 -0.1142 -0.4546  0.9234
 5903UDC     C764929  14.003  10.382   1.785 -0.5798 -1.3806  0.2434
 5903UDC     C864930  14.059  10.309   1.906  0.3801 -1.0568 -0.1826
 5903UDC     C964931  14.165  10.399   1.974  0.1153 -0.8191  0.7017
 5903UDC    C1064932  14.233  10.313   2.081 -0.2881 -0.2384 -0.2883
 5903UDC    C1164933  14.384  10.358   2.074 -0.1330 -0.6815 -0.5119
 5904UDC     C164934   6.030  16.802  15.566  0.2972  0.7996 -0.3992
 5904UDC     C264935   5.955  16.897  15.660 -0.2416  0.7088  0.3842
 5904UDC     C364936   6.044  16.983  15.757  1.0692 -0.2770 -0.4746
 5904UDC     C464937   6.063  16.914  15.890 -0.6889  0.4230 -1.1901
 5904UDC     C564938   6.098  17.004  16.001 -0.2876 -0.4806 -0.6628
 5904UDC     C664939   5.976  17.067  16.078  0.6731 -0.7247  0.0031
 5904UDC     C764940   5.993  17.198  16.159  0.1519 -0.5714 -0.2700
 5904UDC     C864941   5.993  17.161  16.307 -0.2648  0.6559 -0.5989
 5904UDC     C964942   6.028  17.273  16.410 -0.6225  0.5329 -0.7741
 5904UDC    C1064943   6.042  17.209  16.553  0.2602 -0.5361  0.3383
 5904UDC    C1164944   6.068  17.321  16.651  1.2722 -0.1103 -0.4720
 5905UDC     C164945  13.532   7.412   3.218  0.4515  0.8163  0.4219
 5905UDC     C264946  13.435   7.309   3.286  0.0675  0.0377  0.0967
 5905UDC     C364947  13.287   7.307   3.245  0.1580 -0.1200 -1.3667
 5905UDC     C464948  13.268   7.271   3.108 -0.2552 -0.2647  0.8045
 5905UDC     C564949  13.123   7.303   3.091 -0.1739  0.7876  0.9612
 5905UDC     C664950  13.083   7.282   2.942 -0.9999 -0.2168 -0.9432
 5905UDC     C764951  12.957   7.217   2.901  0.7611 -0.0309 -0.0047
 5905UDC     C864952  12.904   7.199   2.760 -1.0974  0.5819 -0.1207
 5905UDC     C964953  12.875   7.055   2.743 -0.1786 -0.5841 -0.2243
 5905UDC    C1064954  12.841   6.994   2.876 -0.2673  0.2163  0.0285
 5905UDC    C1164955  12.760   6.863   2.864 -0.0970  0.0781  0.6300
 5906UDC     C164956  16.213  14.232  10.985 -0.1037  0.6487  0.4538
 5906UDC     C264957  16.197  14.365  10.911 -0.1984 -1.6140  0.3390
 5906UDC     C364958  16.303  14.404  10.802  0.9021 -0.4418  0.4360
 5906UDC     C464959  16.317  14.555  10.756 -0.5138 -0.4633  0.1459
 5906UDC     C564960  16.403  14.645  10.846  0.7138  0.3168 -0.5949
 5906UDC     C664961  16.549  14.671  10.791  0.4127 -0.3673 -0.3110
 5906UDC     C764962  16.607  14.547  10.727 -0.3761 -0.1975  1.2923
 5906UDC     C864963  16.714  14.470  10.809 -0.1168  0.1490 -0.1581
 5906UDC     C964964  16.832  14.419  10.724  0.5142  0.5124  0.8015
 5906UDC    C1064965  16.951  14.515  10.710  0.9063 -0.3793  0.5851
 5906UDC    C1164966  17.007  14.551  10.840 -0.1411 -0.0518 -0.8518
 5907UDC     C164967   0.761  12.253  10.556 -0.0046 -0.7518  0.3893
 5907UDC     C264968   0.732  12.281  10.411  1.2453 -0.0361  0.7083
 5907UDC     C364969   0.775  12.179  10.301 -0.9223  0.2062  0.0866
 5907UDC     C464970   0.769  12.030  10.331  0.0764  0.2747 -0.1792
 5907UDC     C564971   0.649  11.961  10.276  0.1861 -0.2253  0.1656
 5907UDC     C664972   0.694  11.912  10.134  0.4272 -0.2017 -0.1171
 5907UDC     C764973   0.586  11.848  10.045  0.0001  0.0766 -0.1781
 5907UDC     C864974   0.463  11.930  10.018 -0.3886 -0.3018 -0.5955
 5907UDC     C964975   0.357  11.845   9.952 -0.6392 -0.1014  0.4289
 5907UDC    C1064976   0.212  11.883   9.910  0.2477 -0.4520 -0.3149
 5907UDC    C1164977   0.128  11.753   9.891  0.4413 -0.3199  1.0248
 5908UDC     C164978  14.166   2.042  13.978 -0.1859  0.8693 -0.7905
 5908UDC     C264979  14.097   1.987  14.104 -0.0535 -0.9158  0.2076
 5908UDC     C364980  14.034   1.853  14.086  0.0934 -0.1271  0.1110
 5908UDC     C464981  13.981   1.830  13.935 -0.5628  0.5248 -0.5187
 5908UDC     C564982  13.901   1.696  13.923 -0.2893 -0.4302  0.8922
 5908UDC     C664983  13.987   1.572  13.956 -0.5612 -0.3504  0.1014
 5908UDC     C764984  13.932   1.431  13.937  0.3538 -0.6023  1.0727
 5908UDC     C864985  13.806   1.391  14.019 -0.2632 -0.5234  1.0463
 5908UDC     C964986  13.795   1.433  14.166 -0.4608 -0.0903  1.4669
 5908UDC    C1064987  13.659   1.408  14.222 -0.0931 -0.1402  0.4880
 5908UDC    C1164988  13.655   1.384  14.375 -0.3039 -0.1105  0.5805
 5909UDC     C164989  16.215   0.034   1.086 -0.2090  0.2255 -1.1953
 5909UDC     C264990  16.224   0.152   0.988  0.4994  0.2544 -0.7306
 5909UDC     C364991  16.208   0.118   0.841 -0.1911 -1.1601 -0.7003
 5909UDC     C464992  16.166   0.232   0.743 -0.4277 -0.5155  0.2962
 5909UDC     C564993  16.123   0.182   0.597  0.1123 -0.0811 -0.1037
 5909UDC     C664994  16.127   0.303   0.500  0.2247 -0.7596 -0.4697
 5909UDC     C764995  16.018   0.283   0.382 -0.2789  0.2665 -1.4095
 5909UDC     C864996  15.986   0.147   0.320  0.5824  1.0512 -0.0904
 5909UDC     C964997  15.887   0.145   0.199 -0.7201  0.0780  0.5030
 5909UDC    C1064998  15.889   0.012   0.117 -1.5310  0.4068 -0.2895
 5909UDC    C1164999  15.775   0.004   0.021 -0.1509 -0.1896 -0.1200
 5910UDC     C165000   3.016   0.812   1.258  0.2350 -0.3704  0.4092
 5910UDC     C265001   2.922   0.922   1.204 -0.6154  0.9601  0.1824
 5910UDC     C365002   2.970   0.945   1.059 -0.0590 -0.2937 -0.0796
 5910UDC     C465003   2.918   0.842   0.956  0.4045 -0.5602 -0.3224
 5910UDC     C565004   2.883   0.918   0.833  0.2287  0.1463  0.0069
 5910UDC     C665005   2.850   0.815   0.727  0.4425 -0.8284 -0.6862
 5910UDC     C765006   2.704   0.806   0.674  0.0710 -0.6505  0.0313
 5910UDC     C865007   2.669   0.690   0.577  0.6152  1.0364 -0.6148
 5910UDC     C965008   2.520   0.705   0.540  0.6030 -0.0427  0.7876
 5910UDC    C1065009   2.495   0.626   0.407 -0.0580  0.3289  0.6722
 5910UDC    C1165010   2.355   0.567   0.399 -0.0258 -0.3992  0.0222
 5911UDC     C165011   5.749  11.057   2.103 -1.6481  0.6440 -0.5804
 5911UDC     C265012   5.612  11.086   2.171 -0.8021 -0.3534  0.0923
 5911UDC     C365013   5.542  11.212   2.113 -0.6296  0.5027  0.3277
 5911UDC     C465014   5.616  11.346   2.110 -0.4332 -0.1131  0.1319
 5911UDC     C565015   5.574  11.435   2.228  0.1384 -0.5320 -0.3546
 5911UDC     C665016   5.586  11.585   2.200 -1.1582  0.7092 -0.2622
 5911UDC     C765017   5.501  11.615   2.076  0.2393  0.8534  0.4620
 5911UDC     C865018   5.522  11.758   2.044 -0.1874 -0.0044  0.0757
 5911UDC     C965019   5.457  11.793   1.912  0.9276  0.4291 -1.4607
 5911UDC    C1065020   5.423  11.940   1.875  0.1030 -0.5610  0.1752
 5911UDC    C1165021   5.375  11.944   1.733  0.2907 -0.0076 -1.0661
 5912UDC     C165022  18.867   5.644   7.272 -0.1810  0.4053 -0.4861
 5912UDC     C265023  18.784   5.769   7.298  0.3159 -0.0068  0.3779
 5912UDC     C365024  18.641   5.758   7.248 -0.0603 -0.9494  0.0219
 5912UDC     C465025  18.631   5.760   7.087  0.7021 -0.3305  0.1138
 5912UDC     C565026  18.495   5.738   7.007 -0.5773 -0.3004  0.4219
 5912UDC     C665027  18.426   5.870   6.971  0.6294  0.6174  0.9642
 5912UDC     C765028  18.523   5.953   6.882 -0.3990 -0.4356 -0.1941
 5912UDC     C865029  18.464   6.046   6.768 -0.6498 -0.5012 -0.2489
 5912UDC     C965030  18.572   6.106   6.676  0.4047 -0.3779  0.3762
 5912UDC    C1065031  18.510   6.216   6.582 -1.1939  0.0918  0.5769
 5912UDC    C1165032  18.391   6.145   6.506 -0.8141  0.0614 -0.7134
 5913UDC     C165033  10.260   9.841   4.370 -0.5090  0.7385 -0.7189
 5913UDC     C265034  10.138   9.753   4.352  0.1856 -0.9747  0.0239
 5913UDC     C365035  10.092   9.742   4.206  0.8683 -0.5987 -0.3086
 5913UDC     C465036  10.058   9.877   4.146 -0.2354 -0.9101 -1.0705
 5913UDC     C565037   9.914   9.930   4.169  0.1323  0.3290  0.7185
 5913UDC     C665038   9.870  10.019   4.053  0.9895  0.2572 -0.1604
 5913UDC     C765039   9.729  10.081   4.039 -0.4816  0.5150  0.0628
 5913UDC     C865040   9.704  10.140   3.903 -0.4147 -0.6435 -1.1851
 5913UDC     C965041   9.688  10.027   3.796  0.3932 -0.1497 -0.6309
 5913UDC    C1065042   9.705  10.102   3.667 -0.7810  1.4950  0.7857
 5913UDC    C1165043   9.579  10.164   3.594  0.5977 -0.1203 -0.5188
 5914UDC     C165044   1.926  11.263   7.806  0.4893  0.8079  0.4826
 5914UDC     C265045   1.945  11.365   7.693 -0.5009  0.2540  0.4489
 5914UDC     C365046   1.865  11.352   7.569 -0.5092  1.1046  0.1113
 5914UDC     C465047   1.904  11.221   7.490  0.0614 -0.3483  0.4318
 5914UDC     C565048   1.839  11.211   7.351 -0.6149  0.4361 -0.6933
 5914UDC     C665049   1.823  11.092   7.258 -0.2674  0.3745 -0.8829
 5914UDC     C765050   1.748  11.116   7.129  1.1883  0.2406 -0.0729
 5914UDC     C865051   1.730  10.979   7.048  0.3802 -0.2140 -0.3402
 5914UDC     C965052   1.862  10.900   7.044 -0.0111 -0.0759  0.9153
 5914UDC    C1065053   1.850  10.776   6.959  0.6441  1.2014  0.8242
 5914UDC    C1165054   1.979  10.690   6.945  0.1849  0.5411 -0.9484
 5915UDC     C165055  12.613   0.262  10.269  0.0587 -0.4987 -0.4440
 5915UDC     C265056  12.672   0.402  10.290  0.8983  0.0223  0.9830
 5915UDC     C365057  12.695   0.439  10.439  0.7849 -0.6998 -0.2576
 5915UDC     C465058  12.828   0.366  10.479  0.7361 -0.1032  0.7023
 5915UDC     C565059  12.900   0.410  10.601  0.5842 -0.4594  0.0503
 5915UDC     C665060  13.014   0.317  10.635  0.4614  1.4064 -0.1424
 5915UDC     C765061  13.104   0.352  10.756  0.7207  0.6813  1.2207
 5915UDC     C865062  13.213   0.236  10.745  0.7995  0.0318 -0.2575
 5915UDC     C965063  13.330   0.280  10.837 -0.2525  0.2504  0.5437
 5915UDC    C1065064  13.373   0.418  10.802 -0.3745 -0.6946  0.5026
 5915UDC    C1165065  13.514   0.401  10.736  0.3422  0.2517  0.2946
 5916UDC     C165066   0.147   6.740   0.149 -1.4699 -0.4010  0.2845
 5916UDC     C265067  -0.003   6.715   0.116 -0.1033 -0.2802  0.4830
 5916UDC     C365068  -0.125   6.732   0.205 -0.2624 -0.3509 -0.8917
 5916UDC     C465069  -0.250   6.696   0.133 -0.2317  0.3100  0.2566
 5916UDC     C565070  -0.386   6.759   0.159  0.3721 -0.0079  0.6355
 5916UDC     C665071  -0.505   6.686   0.087 -0.0547 -0.4114  0.7703
 5916UDC     C765072  -0.486   6.621  -0.039  0.7388  0.3643  0.1924
 5916UDC     C865073  -0.603   6.580  -0.141 -0.3585  0.1645 -0.7338
 5916UDC     C965074  -0.718   6.502  -0.082 -0.0323 -0.4648  0.0586
 5916UDC    C1065075  -0.839   6.472  -0.177  0.0849  0.2971  0.6270
 5916UDC    C1165076  -0.800   6.347  -0.265  0.4397 -0.5978  0.4123
 5917UDC     C165077  14.672  10.452  19.293 -0.5881 -0.6956 -0.3846
 5917UDC     C265078  14.761  10.451  19.177 -0.3539  0.4834 -0.1489
 5917UDC     C365079  14.910  10.439  19.186  0.6661  0.1942  0.2403
 5917UDC     C465080  14.965  10.305  19.241 -0.2166  0.9485  0.0101
 5917UDC     C565081  14.964  10.278  19.394  0.7276 -0.7478  1.2506
 5917UDC     C665082  15.006  10.134  19.423  0.6821 -0.9616  0.4917
 5917UDC     C765083  14.960  10.101  19.562 -0.5710  0.1713 -0.3573
 5917UDC     C865084  15.025   9.975  19.616  0.0747  0.0889  0.9946
 5917UDC     C965085  15.026   9.966  19.771  0.1681  0.0883 -0.4486
 5917UDC    C1065086  15.065   9.832  19.836 -0.2295 -0.2018  0.2461
 5917UDC    C1165087  15.064   9.830  19.987  0.9017 -0.2911 -0.7301
 5918UDC     C165088  11.271  19.091  17.552 -0.0541 -0.4076 -0.6759
 5918UDC     C265089  11.186  18.985  17.629  0.2850  0.5323  0.3085
 5918UDC     C365090  11.070  19.034  17.725  0.0027  0.0915  0.7140
 5918UDC     C465091  11.023  18.931  17.818 -0.1462  0.0731 -0.1966
 5918UDC     C565092  11.147  18.839  17.858  1.0318 -0.2143 -0.0830
 5918UDC     C665093  11.121  18.774  17.994 -1.2928  1.1981 -0.1619
 5918UDC     C765094  11.241  18.741  18.083  0.9687  0.0423 -0.0600
 5918UDC     C865095  11.221  18.608  18.161 -0.2389 -0.8328  0.6295
 5918UDC     C965096  11.106  18.603  18.260  0.2145  0.3772 -0.5471
 5918UDC    C1065097  11.154  18.658  18.398  0.5038 -1.2684 -0.0381
 5918UDC    C1165098  11.068  18.632  18.525  1.3024 -0.2613  0.5724
 5919UDC     C165099   8.153   7.408   3.837 -0.4048 -0.6300  0.5205
 5919UDC     C265100   8.189   7.316   3.717  0.1614 -0.7164 -0.7307
 5919UDC     C365101   8.058   7.273   3.650  0.5164 -0.4716 -0.4828
 5919UDC     C465102   7.990   7.394   3.578 -0.1435 -0.4655 -0.0043
 5919UDC     C565103   8.071   7.415   3.446  0.0680 -0.6227  0.1608
 5919UDC     C665104   8.031   7.553   3.383  0.5106  1.2121 -1.1341
 5919UDC     C765105   7.911   7.533   3.289 -0.0631 -0.3149  0.1004
 5919UDC     C865106   7.819   7.667   3.280 -0.1927 -0.8482  0.5355
 5919UDC     C965107   7.676   7.645   3.234 -0.2746 -0.3318 -0.3809
 5919UDC    C1065108   7.627   7.768   3.158  1.5392  1.3402 -0.2013
 5919UDC    C1165109   7.702   7.790   3.030 -0.2369  0.0761 -0.4446
 5920UDC     C165110   6.519   7.253   1.499 -0.1140 -0.6277  0.7486
 5920UDC     C265111   6.612   7.152   1.575 -1.1248 -0.7522  0.1511
 5920UDC     C365112   6.658   7.019   1.516  0.0224  0.0669 -1.0360
 5920UDC     C465113   6.725   6.918   1.621  1.0083  0.4746 -0.4798
 5920UDC     C565114   6.646   6.913   1.753  0.2391  0.3587  0.2272
 5920UDC     C665115   6.491   6.883   1.730 -0.0035  0.2948  0.1118
 5920UDC     C765116   6.398   6.914   1.844 -0.2053  1.0782 -0.6886
 5920UDC     C865117   6.381   7.057   1.890  0.1326 -0.7009 -0.0864
 5920UDC     C965118   6.309   7.080   2.021  1.1042 -0.5852  0.2708
 5920UDC    C1065119   6.254   7.227   2.021 -0.5125 -0.0061 -0.2270
 5920UDC    C1165120   6.348   7.348   2.024  0.5228  0.9734 -0.8296
 5921UDC     C165121  17.551  19.211  11.082  0.2867  0.6570 -0.4363
 5921UDC     C265122  17.481  19.134  10.973 -0.3363  0.6262 -0.0129
 5921UDC     C365123  17.588  19.133  10.865 -0.4167  0.6197  0.1947
 5921UDC     C465124  17.552  19.193  10.722  0.2679  0.0605 -0.6913
 5921UDC     C565125  17.568  19.106  10.600 -0.0167  0.1404  0.2675
 5921UDC     C665126  17.509  19.180  10.479  0.1037  0.5587 -0.8081
 5921UDC     C765127  17.356  19.146  10.481  0.2156  0.5204  1.0877
 5921UDC     C865128  17.266  19.256  10.415 -0.7427  0.2013  0.1043
 5921UDC     C965129  17.225  19.233  10.263 -0.1142 -0.5901 -1.4691
 5921UDC    C1065130  17.103  19.137  10.241  0.0699 -0.4383 -0.7479
 5921UDC    C1165131  17.147  18.990  10.215 -0.0014  1.4109  0.8615
 5922UDC     C165132  10.563  19.260  11.160 -0.0591  0.5413 -0.9154
 5922UDC     C265133  10.470  19.376  11.132 -0.3713 -0.7650 -0.4015
 5922UDC     C365134  10.337  19.367  11.211 -0.0215  0.0102  0.9562
 5922UDC     C465135  10.380  19.421  11.342  0.2478 -0.3754 -0.0874
 5922UDC     C565136  10.308  19.341  11.453  0.6798 -0.3134 -0.1087
 5922UDC     C665137  10.372  19.210  11.510  0.3743 -0.0667  0.4354
 5922UDC     C765138  10.300  19.158  11.636 -0.2877  0.9657  0.5187
 5922UDC     C865139  10.331  19.009  11.667  0.1368 -0.0613  0.1078
 5922UDC     C965140  10.286  18.958  11.808  0.7617  0.4420 -0.3506
 5922UDC    C1065141  10.347  18.839  11.873 -0.0417  0.4322 -0.6620
 5922UDC    C1165142  10.289  18.777  12.001 -0.0535  0.9632 -0.9177
 5923UDC     C165143  16.295   0.408   5.131 -0.4012  1.2218  0.0846
 5923UDC     C265144  16.175   0.449   5.230  0.2756 -0.7060  0.2031
 5923UDC     C365145  16.223   0.454   5.375  0.1606 -0.1908 -0.9838
 5923UDC     C465146  16.357   0.523   5.408 -0.7326  0.0631 -0.1292
 5923UDC     C565147  16.348   0.673   5.383 -0.9117  0.3078  0.0675
 5923UDC     C665148  16.462   0.741   5.445 -0.4186 -0.3186  0.7345
 5923UDC     C765149  16.402   0.867   5.503 -0.4087  0.0181 -0.6530
 5923UDC     C865150  16.346   0.950   5.384  1.0565  0.6095  1.4042
 5923UDC     C965151  16.311   1.096   5.394 -0.4284 -0.2653 -0.1526
 5923UDC    C1065152  16.291   1.159   5.262  0.5309 -0.5265  0.9275
 5923UDC    C1165153  16.175   1.103   5.178  0.3917 -0.6628 -0.1895
 5924UDC     C165154  19.705   4.883  19.232 -0.3406  0.2741 -0.7614
 5924UDC     C265155  19.800   4.774  19.259 -0.3463  0.3376 -0.8143
 5924UDC     C365156  19.774   4.727  19.400  0.6609  0.7407 -0.6093
 5924UDC     C465157  19.789   4.830  19.512 -0.6620 -0.9744 -0.0060
 5924UDC     C565158  19.925   4.909  19.498  0.7560 -0.0570  0.3592
 5924UDC     C665159  19.960   5.019  19.597 -0.6498 -0.0090  0.0103
 5924UDC     C765160  20.111   5.060  19.577  0.2691  1.1848 -0.1534
 5924UDC     C865161  20.207   5.085  19.697 -0.1500  0.0053  0.1146
 5924UDC     C965162  20.329   5.163  19.669  0.8322 -0.4160 -0.7129
 5924UDC    C1065163  20.395   5.223  19.796  0.4022  0.1473  0.3506
 5924UDC    C1165164  20.464   5.119  19.883  0.3552  0.3317 -0.3632
 5925UDC     C165165   0.497  17.712  19.542 -0.5785 -0.8995  0.2472
 5925UDC     C265166   0.600  17.826  19.504  1.2821  1.0224 -0.9331
 5925UDC     C365167   0.727  17.772  19.435 -0.1428 -0.1458 -0.7640
 5925UDC     C465168   0.819  17.849  19.344 -0.7139 -0.9003  0.2149
 5925UDC     C565169   0.871  17.995  19.387  0.2641 -1.5144 -0.1436
 5925UDC     C665170   0.973  18.003  19.500 -0.2683  0.3881 -1.3833
 5925UDC     C765171   1.052  18.135  19.499  0.2384  0.1356 -0.5241
 5925UDC     C865172   1.172  18.139  19.602  0.8010 -0.5399 -0.2409
 5925UDC     C965173   1.293  18.044  19.599  0.6942  0.5409  0.5808
 5925UDC    C1065174   1.406  18.122  19.661 -0.0925 -1.1177  0.4238
 5925UDC    C1165175   1.368  18.193  19.790  0.2387  0.3992 -0.3836
 5926UDC     C165176   9.459   9.753  12.969  0.9036  0.2858 -0.3297
 5926UDC     C265177   9.360   9.767  13.078 -0.7196  0.6675  0.9813
 5926UDC     C365178   9.416   9.812  13.207 -1.0591 -0.2095 -0.0506
 5926UDC     C465179   9.505   9.944  13.193 -0.4007 -0.0565 -0.3371
 5926UDC     C565180   9.478  10.050  13.295  0.0855  0.8016  0.1863
 5926UDC     C665181   9.606  10.096  13.362  1.4961  0.7832 -0.5703
 5926UDC     C765182   9.582  10.156  13.500 -0.6647 -0.4076  1.2195
 5926UDC     C865183   9.701  10.182  13.583 -0.4709 -0.6052 -0.3211
 5926UDC     C965184   9.804  10.078  13.558  0.2036  1.0877  0.1810
 5926UDC    C1065185   9.790   9.985  13.684 -1.5090 -0.5072  0.1454
 5926UDC    C1165186   9.833   9.842  13.655 -0.8115  0.2845  0.6731
 5927UDC     C165187  10.777  15.459  11.214 -0.2923  0.0847 -0.6617
 5927UDC     C265188  10.674  15.568  11.182 -0.5518  0.7450  0.1473
 5927UDC     C365189  10.573  15.547  11.069  0.1475  0.8533  0.2526
 5927UDC     C465190  10.494  15.676  11.022  0.8223  0.8456 -1.2037
 5927UDC     C565191  10.364  15.622  10.943 -0.2099  0.3235 -1.0622
 5927UDC     C665192  10.407  15.518  10.844 -0.3161  0.2149 -1.0625
 5927UDC     C765193  10.298  15.420  10.794 -0.4079  0.1352  0.2666
 5927UDC     C865194  10.194  15.473  10.686  0.5293  0.6791 -0.0032
 5927UDC     C965195  10.263  15.551  10.577 -0.7626 -0.3006  0.3024
 5927UDC    C1065196  10.159  15.645  10.513  0.7996  0.3288  0.9383
 5927UDC    C1165197  10.197  15.730  10.390  0.0963 -0.2535  1.5294
 5928UDC     C165198   8.615  17.180   6.183  0.2578 -0.1165 -0.5506
 5928UDC     C265199   8.498  17.237   6.111 -0.1619 -0.1911 -0.3408
 5928UDC     C365200   8.481  17.383   6.151 -0.5601 -0.2478 -0.4419
 5928UDC     C465201   8.383  17.471   6.065  0.5768 -0.4982 -0.0951
 5928UDC     C565202   8.323  17.576   6.150  0.0530  0.1827  0.2008
 5928UDC     C665203   8.246  17.537   6.277  0.0803 -0.1010 -0.7918
 5928UDC     C765204   8.153  17.423   6.240 -1.0364  0.7996  1.0319
 5928UDC     C865205   8.038  17.369   6.332 -0.2603 -2.2919 -0.1888
 5928UDC     C965206   8.090  17.273   6.438 -0.0797  0.2949 -0.0096
 5928UDC    C1065207   8.051  17.317   6.580  0.7748  1.4361 -0.7478
 5928UDC    C1165208   8.107  17.224   6.686 -0.2270  0.3317 -0.9793
 5929UDC     C165209  17.385   9.775   0.011 -0.3763  0.1849 -0.1571
 5929UDC     C265210  17.292   9.885  -0.034 -0.2373 -0.8948  0.0905
 5929UDC     C365211  17.367   9.982  -0.132  0.1234  0.4030  1.3690
 5929UDC     C465212  17.242  10.040  -0.209 -0.5676 -1.1040 -0.7215
 5929UDC     C565213  17.210  10.195  -0.211  0.6052  0.2089  0.0535
 5929UDC     C665214  17.304  10.258  -0.306  0.3273  0.6839  0.4290
 5929UDC     C765215  17.264  10.396  -0.332 -0.3445 -1.0197  0.5131
 5929UDC     C865216  17.128  10.390  -0.403  1.8704  0.1858 -0.3347
 5929UDC     C965217  17.069  10.507  -0.482  0.3788 -0.9280 -0.4735
 5929UDC    C1065218  16.938  10.524  -0.404  0.0541  0.2863  0.8637
 5929UDC    C1165219  16.816  10.515  -0.496  1.1447 -0.2729 -0.5258
 5930UDC     C165220   2.365   4.815  12.689 -0.1042  0.5209  1.1266
 5930UDC     C265221   2.467   4.772  12.791 -0.3796 -0.1591 -0.1630
 5930UDC     C365222   2.494   4.625  12.814 -0.7532  0.0706  1.5569
 5930UDC     C465223   2.541   4.543  12.689 -0.5674  0.5760 -0.6908
 5930UDC     C565224   2.665   4.600  12.616 -0.0635 -0.1165 -0.0077
 5930UDC     C665225   2.696   4.539  12.482 -0.3369  0.0357  0.6208
 5930UDC     C765226   2.569   4.513  12.402 -1.2216  1.1592  0.6721
 5930UDC     C865227   2.594   4.451  12.262 -0.3968 -0.8660  0.1610
 5930UDC     C965228   2.662   4.311  12.261 -0.7961 -0.7490 -0.5059
 5930UDC    C1065229   2.590   4.204  12.182  0.9776  1.4885 -1.3377
 5930UDC    C1165230   2.582   4.191  12.037  0.0579  0.3418  0.0584
 5931UDC     C165231   4.319   4.862   6.036  0.1628 -0.0781 -0.2014
 5931UDC     C265232   4.239   4.790   5.927  0.4708 -1.2482  0.2587
 5931UDC     C365233   4.298   4.659   5.880  1.3150  0.4203 -0.1728
 5931UDC     C465234   4.210   4.571   5.790 -0.2558 -0.1498  0.5154
 5931UDC     C565235   4.214   4.642   5.654  0.4152 -0.6880  0.2468
 5931UDC     C665236   4.190   4.550   5.532 -0.1501 -0.4044 -0.6225
 5931UDC     C765237   4.048   4.503   5.507  0.3187 -0.1578 -0.4397
 5931UDC     C865238   3.978   4.410   5.607 -0.2053  0.2167  0.0162
 5931UDC     C965239   3.834   4.367   5.589 -0.3973  0.0476  1.3511
 5931UDC    C1065240   3.775   4.286   5.700  1.1443  0.5739  0.6200
 5931UDC    C1165241   3.620   4.262   5.698 -0.4824  0.0246  0.2926
 5932UDC     C165242  14.756  19.020   7.007  0.2062  0.6041  0.4397
 5932UDC     C265243  14.666  19.058   7.122  0.8680 -0.3380 -0.6227
 5932UDC     C365244  14.582  18.972   7.211 -0.5759  0.9882  0.9947
 5932UDC     C465245  14.471  18.902   7.125 -0.9304 -0.6011 -0.1084
 5932UDC     C565246  14.363  18.847   7.214  0.0513 -0.3406  0.7087
 5932UDC     C665247  14.240  18.776   7.157 -0.5881 -0.6729  0.9995
 5932UDC     C765248  14.125  18.718   7.241 -0.0452 -0.8479  0.6979
 5932UDC     C865249  14.073  18.816   7.355 -0.0959  0.7569 -0.6702
 5932UDC     C965250  13.926  18.796   7.405  0.6505  0.3266 -0.1776
 5932UDC    C1065251  13.817  18.842   7.309 -0.8861  0.7110 -0.4872
 5932UDC    C1165252  13.792  18.994   7.323 -0.4739 -0.8692  0.4526
 5933UDC     C165253   1.783   9.652   0.299  0.3850 -0.5019 -0.5659
 5933UDC     C265254   1.881   9.672   0.418 -0.7999  0.5041  0.9893
 5933UDC     C365255   1.976   9.553   0.436  0.5442  0.5711 -0.7673
 5933UDC     C465256   1.899   9.431   0.495  0.3289 -0.2336 -0.2714
 5933UDC     C565257   1.962   9.296   0.466 -0.2243  0.0571 -0.0697
 5933UDC     C665258   2.113   9.315   0.457 -1.6450 -0.7495 -0.1613
 5933UDC     C765259   2.170   9.293   0.316  0.4466  0.0690  1.0645
 5933UDC     C865260   2.165   9.164   0.234  0.1946 -0.1811  0.4600
 5933UDC     C965261   2.268   9.166   0.119 -0.7666  0.2535  0.6680
 5933UDC    C1065262   2.403   9.146   0.173 -0.5845 -0.4049  1.5427
 5933UDC    C1165263   2.534   9.153   0.081  0.9431  0.0480  0.2497
 5934UDC     C165264  13.796   5.719   2.356  0.0885  0.2442  0.4575
 5934UDC     C265265  13.786   5.593   2.448 -1.8031 -0.1722  0.4199
 5934UDC     C365266  13.673   5.495   2.465 -0.1982  0.0169 -0.4011
 5934UDC     C465267  13.684   5.379   2.561 -0.0378  0.9522 -0.5119
 5934UDC     C565268  13.572   5.270   2.573 -0.5903 -0.5324 -0.6239
 5934UDC     C665269  13.592   5.159   2.675  0.0861 -1.0757 -0.6952
 5934UDC     C765270  13.484   5.071   2.728 -0.3769  0.6936 -0.8131
 5934UDC     C865271  13.472   5.032   2.876  0.4268 -0.0309  0.4581
 5934UDC     C965272  13.368   4.929   2.928 -0.1124 -0.2922  1.5458
 5934UDC    C1065273  13.397   4.880   3.074  0.4885 -0.4223  0.8100
 5934UDC    C1165274  13.318   4.756   3.129 -0.4654 -0.1301  0.1202
 5935UDC     C165275   1.576  19.508   3.656 -1.5289 -0.3753 -0.6592
 5935UDC     C265276   1.472  19.548   3.553  0.5003  0.6892  0.3031
 5935UDC     C365277   1.454  19.447   3.435  0.1177  0.5761 -0.1611
 5935UDC     C465278   1.374  19.332   3.497  0.5727 -0.3547 -0.7882
 5935UDC     C565279   1.376  19.215   3.398 -0.1579  0.7519 -1.0087
 5935UDC     C665280   1.262  19.107   3.426  0.0049  0.6603  0.1320
 5935UDC     C765281   1.254  19.045   3.567  0.1670 -0.9891  1.2783
 5935UDC     C865282   1.139  18.951   3.586 -0.5062 -0.2388  0.1249
 5935UDC     C965283   1.114  18.941   3.738 -0.1999 -0.7938 -1.0229
 5935UDC    C1065284   0.985  18.869   3.781  0.7562  0.6612 -0.7483
 5935UDC    C1165285   0.980  18.713   3.771  0.3756 -0.5755 -0.6789
 5936UDC     C165286   1.314   2.303   9.640  0.8268 -0.9936  0.2159
 5936UDC     C265287   1.312   2.368   9.498 -0.4524  0.0766 -0.7606
 5936UDC     C365288   1.174   2.435   9.463 -1.2197 -0.6662  0.6105
 5936UDC     C465289   1.173   2.485   9.314 -0.7375  0.1221 -0.6048
 5936UDC     C565290   1.033   2.489   9.254 -0.4472 -1.1435  0.9886
 5936UDC     C665291   0.928   2.553   9.338 -0.4996  0.1750  1.1509
 5936UDC     C765292   0.790   2.519   9.277 -0.9841 -1.0662 -0.6935
 5936UDC     C865293   0.669   2.541   9.368 -0.0072 -0.1455 -0.3212
 5936UDC     C965294   0.554   2.497   9.269  0.8368 -0.1062  0.2985
 5936UDC    C1065295   0.605   2.376   9.193 -0.2134  0.4228 -0.6925
 5936UDC    C1165296   0.522   2.330   9.077  0.1452  0.8403 -0.0086
 5937UDC     C165297   3.642  14.079   4.214 -0.0005  0.5175  0.8008
 5937UDC     C265298   3.620  14.147   4.086  1.5513 -0.5576  0.2826
 5937UDC     C365299   3.624  14.044   3.968 -0.3006 -0.6524 -0.0718
 5937UDC     C465300   3.604  14.098   3.824 -0.5224 -0.6856  0.4572
 5937UDC     C565301   3.659  14.242   3.796 -0.5981  0.4570  0.4319
 5937UDC     C665302   3.598  14.314   3.674 -0.6398  0.0680  0.4085
 5937UDC     C765303   3.631  14.248   3.534 -0.0617  0.7668 -0.7141
 5937UDC     C865304   3.760  14.302   3.476 -0.8657  0.3109  0.2150
 5937UDC     C965305   3.779  14.450   3.458 -0.4304 -0.6545  0.3737
 5937UDC    C1065306   3.922  14.488   3.416 -0.2466  0.1109  0.6017
 5937UDC    C1165307   3.941  14.640   3.430 -0.8403  0.1885  0.0645
 5938UDC     C165308   7.195   0.525   0.162  0.0092 -0.1063 -1.0444
 5938UDC     C265309   7.189   0.676   0.191 -1.0410  0.1576  0.2735
 5938UDC     C365310   7.184   0.773   0.068  0.5153 -0.2143 -1.1005
 5938UDC     C465311   7.207   0.912   0.123  0.0166  0.2811  0.5525
 5938UDC     C565312   7.315   0.941   0.223 -0.4118  0.1845  0.0082
 5938UDC     C665313   7.391   1.064   0.186 -0.5798  0.2302  0.3582
 5938UDC     C765314   7.486   1.124   0.295  0.7901 -0.4706 -0.3518
 5938UDC     C865315   7.410   1.163   0.422 -0.6256 -0.6736 -0.1068
 5938UDC     C965316   7.470   1.289   0.495  0.4358 -1.3395  0.1174
 5938UDC    C1065317   7.376   1.354   0.600  0.7028  0.8252  0.4675
 5938UDC    C1165318   7.449   1.460   0.681 -0.0678 -0.0972 -0.1708
 5939UDC     C165319  12.740   0.593  14.985  0.0544 -0.9040 -0.0359
 5939UDC     C265320  12.815   0.460  15.011 -0.1323 -1.6414 -0.0377
 5939UDC     C365321  12.747   0.350  14.933 -0.9053  0.0916  0.6775
 5939UDC     C465322  12.842   0.309  14.815  0.7032 -1.2104  0.8808
 5939UDC     C565323  12.807   0.385  14.687 -0.6740 -1.0951  1.1234
 5939UDC     C665324  12.931   0.383  14.597  0.5129  0.0501 -0.2009
 5939UDC     C765325  12.924   0.480  14.480  0.1209 -0.7087  0.2582
 5939UDC     C865326  13.024   0.429  14.373  0.0753  0.1492 -0.0597
 5939UDC     C965327  13.008   0.475  14.226  1.1458  0.4566  0.4350
 5939UDC    C1065328  13.085   0.395  14.119  0.5009  0.2895  0.8695
 5939UDC    C1165329  13.234   0.418  14.133  0.4515 -0.5178 -0.0562
 5940UDC     C165330  11.120  12.138  15.476 -0.6246  0.4135  0.3112
 5940UDC     C265331  11.012  12.239  15.496  0.1042 -0.0678  0.6826
 5940UDC     C365332  10.868  12.207  15.459  0.1504  0.2626  0.2662
 5940UDC     C465333  10.790  12.338  15.449 -0.4635  0.0291  0.3893
 5940UDC     C565334  10.801  12.439  15.569  0.7946 -0.0317  1.3988
 5940UDC     C665335  10.689  12.549  15.562 -0.0324  0.6442 -0.1598
 5940UDC     C765336  10.597  12.558  15.685 -0.3313 -0.4394  0.1765
 5940UDC     C865337  10.547  12.704  15.694 -0.0735 -0.2756  0.4845
 5940UDC     C965338  10.413  12.671  15.758  0.0708  0.0181 -0.6381
 5940UDC    C1065339  10.300  12.774  15.755 -0.1359 -0.9525 -0.1267
 5940UDC    C1165340  10.173  12.712  15.803  0.2025  1.1297 -0.5138
 5941UDC     C165341   2.348   2.845   2.446  1.3273 -0.3093 -0.4677
 5941UDC     C265342   2.364   2.851   2.300 -0.4690 -0.5137 -0.2248
 5941UDC     C365343   2.457   2.741   2.243  0.8494  0.0040 -0.0776
 5941UDC     C465344   2.474   2.701   2.098  0.2234  0.0262  0.8415
 5941UDC     C565345   2.595   2.619   2.051 -0.0161  0.7165  0.4638
 5941UDC     C665346   2.543   2.530   1.924  1.0932 -0.8662 -0.4228
 5941UDC     C765347   2.624   2.409   1.878 -0.6832  0.9270  0.9622
 5941UDC     C865348   2.545   2.298   1.814  0.5207 -0.4293  0.3780
 5941UDC     C965349   2.564   2.286   1.667 -0.5246 -0.0199 -0.2975
 5941UDC    C1065350   2.702   2.312   1.597  0.0882  0.6964  0.6534
 5941UDC    C1165351   2.770   2.181   1.551 -0.8768 -0.1509  0.5204
 5942UDC     C165352   1.233   3.272   7.980 -0.8570  0.0285  0.3589
 5942UDC     C265353   1.189   3.175   8.085  0.8859  0.0172  0.7087
 5942UDC     C365354   1.293   3.126   8.181 -0.0570 -0.0164  0.1617
 5942UDC     C465355   1.225   3.029   8.284 -0.7206 -0.7329  0.2824
 5942UDC     C565356   1.165   2.888   8.242 -0.0555  0.4805  0.8050
 5942UDC     C665357   1.098   2.817   8.353 -0.2217 -0.7288  0.7531
 5942UDC     C765358   1.210   2.731   8.420  1.2167 -0.4820  0.2694
 5942UDC     C865359   1.165   2.633   8.528  0.0083 -0.3239 -1.0468
 5942UDC     C965360   1.106   2.672   8.664  0.0070  0.6785 -0.6797
 5942UDC    C1065361   1.077   2.563   8.765  0.7675 -0.0307 -0.3319
 5942UDC    C1165362   0.993   2.622   8.879  0.2941  0.0341 -0.7433
 5943UDC     C165363   1.022  16.931   0.974 -0.6737  0.1770 -0.0416
 5943UDC     C265364   1.024  17.084   0.944  0.2264 -0.4054  0.5143
 5943UDC     C365365   1.095  17.116   0.816 -0.2750 -0.7254  0.6361
 5943UDC     C465366   1.129  17.268   0.832 -1.0046  0.1869  0.4407
 5943UDC     C565367   1.264  17.283   0.744  0.1051 -0.8211 -0.1207
 5943UDC     C665368   1.225  17.284   0.592 -0.0153 -0.3282  0.7757
 5943UDC     C765369   1.138  17.411   0.557  0.2850  0.7339 -0.1811
 5943UDC     C865370   1.015  17.374   0.476 -0.8177 -0.8272  0.7507
 5943UDC     C965371   0.912  17.485   0.435 -0.6924 -0.9868 -0.2402
 5943UDC    C1065372   0.890  17.589   0.545  0.5202 -0.0070  0.5648
 5943UDC    C1165373   0.740  17.611   0.546 -0.4236 -0.6763  0.5590
 5944UDC     C165374   0.507   6.485  15.588 -0.4298  0.5568 -0.4727
 5944UDC     C265375   0.352   6.504  15.566 -0.3540 -0.0738  0.8712
 5944UDC     C365376   0.330   6.543  15.419  0.1966  0.5468 -0.3709
 5944UDC     C465377   0.400   6.676  15.384 -0.4639  0.2499  0.1992
 5944UDC     C565378   0.388   6.780  15.498  1.1357 -0.9293  0.6173
 5944UDC     C665379   0.421   6.928  15.469 -0.0764 -0.0106  1.0271
 5944UDC     C765380   0.563   6.965  15.492  0.4769 -0.4427  0.5527
 5944UDC     C865381   0.661   6.905  15.380  0.6331  1.4572 -1.1855
 5944UDC     C965382   0.628   6.957  15.236  0.2439 -0.0382 -0.3908
 5944UDC    C1065383   0.740   6.930  15.141  0.6230  0.6001  0.1912
 5944UDC    C1165384   0.744   6.783  15.086  0.5572 -0.0850 -0.6803
 5945UDC     C165385   5.796   8.559  17.891  0.6147 -0.0609 -0.3917
 5945UDC     C265386   5.753   8.700  17.917  0.4387 -0.2018  0.0482
 5945UDC     C365387   5.829   8.796  18.019  0.6664  0.4477  1.4498
 5945UDC     C465388   5.974   8.813  17.973  0.3435  0.0056  1.2586
 5945UDC     C565389   6.042   8.935  18.039 -0.0673  0.2257  0.1674
 5945UDC     C665390   6.136   9.006  17.940  0.9347 -0.5421  0.1895
 5945UDC     C765391   6.275   9.039  17.996 -0.3721 -0.4386  1.1129
 5945UDC     C865392   6.348   9.141  17.900  0.1509 -0.1752 -0.2004
 5945UDC     C965393   6.373   9.106  17.756  0.3471 -0.2143  0.1315
 5945UDC    C1065394   6.450   8.976  17.746 -0.3323 -0.1939  0.4665
 5945UDC    C1165395   6.597   8.978  17.795  0.1072 -0.9817  0.1570
 5946UDC     C165396  16.258   1.734  10.657 -0.1548  0.2742  0.4361
 5946UDC     C265397  16.313   1.617  10.742 -0.4158 -0.4064  0.8955
 5946UDC     C365398  16.304   1.647  10.890 -0.0127 -0.3801 -0.1961
 5946UDC     C465399  16.157   1.643  10.937  0.3204  0.1870 -1.4384
 5946UDC     C565400  16.123   1.643  11.089 -0.3469  1.0931 -0.1657
 5946UDC     C665401  16.134   1.793  11.129  1.4222 -0.2962 -0.0478
 5946UDC     C765402  16.077   1.826  11.269 -0.8834  0.2839 -0.6137
 5946UDC     C865403  16.115   1.971  11.321  0.2125  0.0049  0.3109
 5946UDC     C965404  16.056   2.081  11.237 -0.1417  0.3703 -0.3434
 5946UDC    C1065405  16.098   2.213  11.307  0.8126 -0.7216 -0.0094
 5946UDC    C1165406  16.247   2.237  11.299 -0.1416  0.4387  0.3729
 5947UDC     C165407  17.007  11.050  13.146 -0.5969 -0.5408 -0.2985
 5947UDC     C265408  16.953  10.926  13.206  0.5965 -0.8934  0.2070
 5947UDC     C365409  17.044  10.815  13.152  0.0510 -0.1204  0.2575
 5947UDC     C465410  17.054  10.782  13.004 -0.7046  0.9024 -0.0155
 5947UDC     C565411  17.122  10.648  12.972  0.0549  0.2193 -0.5310
 5947UDC     C665412  17.258  10.623  13.038 -0.3100  0.0018 -0.5048
 5947UDC     C765413  17.322  10.496  12.975 -0.1791 -0.7727 -0.6540
 5947UDC     C865414  17.420  10.428  13.071 -0.8310 -0.3396  0.3965
 5947UDC     C965415  17.468  10.292  13.014 -0.0837 -1.2259  0.0920
 5947UDC    C1065416  17.372  10.177  13.007 -0.3923 -0.3338 -0.3472
 5947UDC    C1165417  17.448  10.046  12.979  0.5250  0.6131 -0.3232
 5948UDC     C165418  12.937  10.649   4.536  0.2152  0.8392 -0.1435
 5948UDC     C265419  13.054  10.567   4.600  0.0137 -0.9845  0.8776
 5948UDC     C365420  12.989  10.452   4.669  0.2881 -0.6152  0.2121
 5948UDC     C465421  12.953  10.496   4.810  0.5322 -0.2400 -0.8216
 5948UDC     C565422  12.933  10.364   4.888  0.4299  1.2421  1.1575
 5948UDC     C665423  12.948  10.365   5.038  0.2310 -0.1554 -0.4412
 5948UDC     C765424  13.063  10.448   5.105  0.8308  0.1867  0.2164
 5948UDC     C865425  13.085  10.419   5.254  0.1222 -0.8649 -0.4864
 5948UDC     C965426  13.165  10.524   5.337  0.7057  0.2061 -0.2225
 5948UDC    C1065427  13.261  10.453   5.430 -1.2213 -0.0481 -0.1620
 5948UDC    C1165428  13.375  10.373   5.365 -0.2259 -0.0061 -1.1836
 5949UDC     C165429  17.713  11.987   6.475  0.3845 -1.0952 -0.1749
 5949UDC     C265430  17.633  12.070   6.364 -0.1282 -0.1122  0.0391
 5949UDC     C365431  17.667  12.026   6.214 -0.2992 -0.0605 -0.2274
 5949UDC     C465432  17.687  12.131   6.105  0.1339 -0.3139  0.5488
 5949UDC     C565433  17.835  12.173   6.113  0.4959 -0.9619  0.3651
 5949UDC     C665434  17.931  12.062   6.108 -0.7315 -0.1298 -1.2846
 5949UDC     C765435  18.073  12.112   6.068  0.9967 -0.7180  0.3102
 5949UDC     C865436  18.204  12.094   6.147 -0.4599  0.8890  0.2959
 5949UDC     C965437  18.180  12.152   6.287  2.3032 -0.5974 -0.4565
 5949UDC    C1065438  18.205  12.302   6.300 -0.9783 -0.4835 -0.2127
 5949UDC    C1165439  18.159  12.336   6.442  0.7603  0.9783 -1.1877
 5950UDC     C165440  18.271   5.885   9.589 -0.6029 -0.8368  0.5335
 5950UDC     C265441  18.225   5.756   9.520  0.4162 -0.8835 -0.3189
 5950UDC     C365442  18.168   5.784   9.372 -0.1184  0.2995  0.9613
 5950UDC     C465443  18.171   5.657   9.286  0.9574  0.0579 -0.5650
 5950UDC     C565444  18.281   5.640   9.179  0.0726 -0.4253  1.1161
 5950UDC     C665445  18.238   5.503   9.127 -0.2113  0.8838 -0.7756
 5950UDC     C765446  18.358   5.450   9.033  0.4988 -0.7629 -0.0457
 5950UDC     C865447  18.509   5.457   9.076  0.3576  0.3160  0.1520
 5950UDC     C965448  18.561   5.321   9.129  0.1504 -0.0808 -0.4358
 5950UDC    C1065449  18.709   5.320   9.161 -0.7515 -0.3358 -0.2101
 5950UDC    C1165450  18.754   5.183   9.210 -0.8842 -1.3925 -1.0516
 5951UDC     C165451  10.371   7.794   9.278  0.2004  0.5982 -0.4812
 5951UDC     C265452  10.291   7.776   9.405 -0.0440 -0.1146 -0.9804
 5951UDC     C365453  10.291   7.635   9.454  0.3403  1.1892  0.3713
 5951UDC     C465454  10.190   7.541   9.377 -0.4749 -0.2376 -0.0913
 5951UDC     C565455  10.204   7.397   9.424 -0.4768  0.6275  0.4363
 5951UDC     C665456  10.361   7.352   9.436  0.0729  0.3941  0.1071
 5951UDC     C765457  10.442   7.353   9.301  0.3696  0.1246 -0.1548
 5951UDC     C865458  10.403   7.262   9.188  0.0596 -0.0996  0.3209
 5951UDC     C965459  10.507   7.250   9.071  0.6814 -0.7700 -0.6553
 5951UDC    C1065460  10.639   7.212   9.142  0.2927 -0.5592  0.1479
 5951UDC    C1165461  10.707   7.116   9.049  0.7011 -0.8819 -0.2952
 5952UDC     C165462  19.635  11.132   6.321 -0.6946  0.0130 -0.5178
 5952UDC     C265463  19.666  11.057   6.193 -0.2378 -0.4667 -1.7000
 5952UDC     C365464  19.563  11.077   6.081  0.1651 -0.1346 -0.4780
 5952UDC     C465465  19.603  11.000   5.949 -0.8453  0.6050  0.4727
 5952UDC     C565466  19.483  10.965   5.863  0.1495  0.9292  0.7298
 5952UDC     C665467  19.390  10.861   5.927 -0.3302 -0.7471  0.5017
 5952UDC     C765468  19.434  10.716   5.962  0.3752 -0.3651 -0.4940
 5952UDC     C865469  19.452  10.634   5.828  0.2276 -0.0510 -0.3754
 5952UDC     C965470  19.510  10.493   5.841 -0.1263 -0.1662  0.0607
 5952UDC    C1065471  19.486  10.416   5.703  0.6789  0.4948 -0.1055
 5952UDC    C1165472  19.606  10.325   5.647  0.6992  0.6744 -0.6611
 5953UDC     C165473   5.225   2.510   7.704 -0.8039 -0.0823 -0.9383
 5953UDC     C265474   5.128   2.399   7.672  1.1168 -0.6098  0.8409
 5953UDC     C365475   5.160   2.328   7.541 -0.7524 -0.7130 -0.2700
 5953UDC     C465476   5.087   2.197   7.519  0.1268  1.0473 -0.8722
 5953UDC     C565477   5.048   2.119   7.652  1.1436 -0.4488  0.4139
 5953UDC     C665478   5.165   2.021   7.696  0.4212 -0.2169 -0.3316
 5953UDC     C765479   5.148   1.869   7.680 -1.5451 -1.1628 -0.2868
 5953UDC     C865480   5.271   1.794   7.612 -0.5533 -0.8978  0.2902
 5953UDC     C965481   5.281   1.647   7.665  1.4563 -0.2764  1.5575
 5953UDC    C1065482   5.396   1.572   7.600 -0.7212 -1.4128 -0.9385
 5953UDC    C1165483   5.407   1.428   7.643  0.4482  0.0798  0.3361
 5954UDC     C165484   1.627   5.526  17.025 -0.1811 -1.0411  0.0221
 5954UDC     C265485   1.587   5.644  17.121  0.2273 -0.4125  0.3881
 5954UDC     C365486   1.690   5.756  17.147  0.1073  1.2800  0.1738
 5954UDC     C465487   1.731   5.836  17.029  0.1871  0.4194  0.4574
 5954UDC     C565488   1.837   5.942  17.086  0.6253  1.5048  0.4465
 5954UDC     C665489   1.961   5.870  17.125  0.1752  1.1847 -1.0597
 5954UDC     C765490   2.076   5.962  17.175  0.2672  0.0819  0.3495
 5954UDC     C865491   2.184   5.876  17.234 -1.2986  1.2883 -0.5162
 5954UDC     C965492   2.131   5.794  17.358 -0.5575 -0.0208 -0.7784
 5954UDC    C1065493   2.232   5.701  17.425  0.0232  0.2724 -0.2936
 5954UDC    C1165494   2.333   5.781  17.513 -0.0593 -0.7882 -0.4815
 5955UDC     C165495  18.957   1.075  18.198 -0.5492 -0.3688  0.3832
 5955UDC     C265496  19.048   1.130  18.082  0.2710 -0.1690 -1.3023
 5955UDC     C365497  19.090   1.026  17.978 -0.0327 -0.5113  0.6595
 5955UDC     C465498  19.157   0.910  18.051 -0.6095 -0.8600  0.3821
 5955UDC     C565499  19.204   0.794  17.959  0.0672 -0.2937 -0.2850
 5955UDC     C665500  19.294   0.686  18.011 -0.2454  0.6489  0.2072
 5955UDC     C765501  19.379   0.597  17.909 -0.5887 -0.4119 -1.0627
 5955UDC     C865502  19.440   0.479  17.994 -0.6397  0.1085  0.6064
 5955UDC     C965503  19.330   0.405  18.069  0.1724  1.6530  0.5894
 5955UDC    C1065504  19.352   0.333  18.205  0.8139 -0.2722  0.2003
 5955UDC    C1165505  19.257   0.225  18.256  0.8301  1.3914 -0.1354
 5956UDC     C165506   8.069   2.753  11.563  0.7562  0.1813 -0.3190
 5956UDC     C265507   8.059   2.891  11.631  0.2033 -0.6710  0.0407
 5956UDC     C365508   8.080   2.867  11.784 -0.0756 -0.2964 -0.1076
 5956UDC     C465509   8.121   2.988  11.873  0.3094 -0.3039 -0.4297
 5956UDC     C565510   8.078   2.944  12.016  0.0720 -0.8776  0.4908
 5956UDC     C665511   8.099   3.049  12.130 -0.8457  0.1785 -0.2390
 5956UDC     C765512   7.981   3.044  12.228 -0.3774  0.4495  0.3242
 5956UDC     C865513   7.859   3.130  12.191  0.6804  0.9298  0.1308
 5956UDC     C965514   7.724   3.073  12.249 -0.0341 -1.7465 -0.7703
 5956UDC    C1065515   7.595   3.155  12.238 -0.1999 -0.3248 -0.1450
 5956UDC    C1165516   7.608   3.303  12.275 -0.6432 -0.7583 -0.5577
 5957UDC     C165517   2.576  14.420  11.003 -0.5243 -0.7096 -0.3931
 5957UDC     C265518   2.459  14.507  11.060 -0.4299 -0.2967 -0.2185
 5957UDC     C365519   2.344  14.551  10.967 -0.1864 -0.2090 -0.1275
 5957UDC     C465520   2.240  14.444  10.959  1.1594  0.9159  0.1636
 5957UDC     C565521   2.156  14.466  10.834  0.4659 -0.2618  0.1747
 5957UDC     C665522   2.247  14.474  10.712  1.2730  0.6881  0.8307
 5957UDC     C765523   2.179  14.451  10.572  0.6065 -0.3227  0.1199
 5957UDC     C865524   2.097  14.325  10.547  0.5775 -0.9091  1.6514
 5957UDC     C965525   1.969  14.349  10.471  0.8583  0.1185 -0.1350
 5957UDC    C1065526   1.851  14.249  10.464  0.0645  0.1924 -0.1714
 5957UDC    C1165527   1.820  14.216  10.613 -0.6248 -0.3454 -0.0598
 5958UDC     C165528  17.282  17.093   2.013  0.1016  0.1979  0.4017
 5958UDC     C265529  17.276  16.941   1.978  0.4911 -0.7785  0.3591
 5958UDC     C365530  17.253  16.841   2.084 -0.3328  0.9333  0.3309
 5958UDC     C465531  17.339  16.835   2.210 -0.6782 -1.2229  0.7462
 5958UDC     C565532  17.316  16.708   2.294 -0.0542  0.3067 -0.5306
 5958UDC     C665533  17.339  16.741   2.443  0.1752  0.6114  0.4070
 5958UDC     C765534  17.486  16.787   2.477  0.2060 -1.3209 -0.5538
 5958UDC     C865535  17.547  16.799   2.617 -0.2560 -1.0984  1.4227
 5958UDC     C965536  17.671  16.891   2.632 -0.2429 -0.3589  1.0985
 5958UDC    C1065537  17.627  17.037   2.662 -0.5450  0.4099 -0.4842
 5958UDC    C1165538  17.759  17.108   2.677 -0.2982 -0.3393  1.2254
 5959UDC     C165539  10.671   9.323  18.946 -0.0790  0.2037  0.9035
 5959UDC     C265540  10.525   9.369  18.913  0.7140 -1.0404 -0.8294
 5959UDC     C365541  10.422   9.259  18.935  0.2663  0.3182 -0.0791
 5959UDC     C465542  10.474   9.132  18.867 -0.3600  0.1783 -0.3951
 5959UDC     C565543  10.425   9.002  18.912  0.0974  0.5818  0.1942
 5959UDC     C665544  10.340   8.918  18.813 -0.9275  0.0010 -0.2296
 5959UDC     C765545  10.325   8.783  18.889  0.3721  0.0010  0.7086
 5959UDC     C865546  10.455   8.725  18.945 -0.1358  0.0246  0.6332
 5959UDC     C965547  10.475   8.590  19.022 -0.7459  0.3136 -0.2615
 5959UDC    C1065548  10.621   8.566  19.062  0.2080 -0.2093  0.5702
 5959UDC    C1165549  10.683   8.670  19.152 -1.2201  0.5385  1.0489
 5960UDC     C165550   0.008  13.893  16.288  0.4565 -0.1121 -0.9470
 5960UDC     C265551  -0.070  14.022  16.333  0.4793  0.8762 -1.1363
 5960UDC     C365552  -0.219  14.004  16.365 -0.3063  0.0708  0.0776
 5960UDC     C465553  -0.279  13.907  16.470  0.1228  0.9521  0.0850
 5960UDC     C565554  -0.403  13.842  16.397  0.3152 -0.3597  0.5240
 5960UDC     C665555  -0.494  13.738  16.472  0.4366 -0.7382 -1.3364
 5960UDC     C765556  -0.547  13.614  16.390 -0.1665 -0.3943  0.0116
 5960UDC     C865557  -0.438  13.537  16.317  0.1652  0.5291 -0.4490
 5960UDC     C965558  -0.492  13.435  16.221 -0.1771  0.8660  1.1014
 5960UDC    C1065559  -0.577  13.315  16.281 -0.6376  1.1362 -1.0918
 5960UDC    C1165560  -0.503  13.193  16.334 -0.7248  0.9632 -0.6301
 5961UDC     C165561   2.770  12.928  12.155 -0.8233  0.0337 -0.6944
 5961UDC     C265562   2.793  12.807  12.065  0.5551 -0.1579 -0.5377
 5961UDC     C365563   2.662  12.743  12.024  0.3967  0.6078  0.1437
 5961UDC     C465564   2.582  12.813  11.918  0.6757 -0.4145  0.4857
 5961UDC     C565565   2.446  12.753  11.858 -0.5343  0.2941 -0.3637
 5961UDC     C665566   2.364  12.818  11.753 -0.3544  0.0014 -0.5201
 5961UDC     C765567   2.247  12.741  11.689 -1.2646  0.0439 -0.6196
 5961UDC     C865568   2.145  12.668  11.790 -0.9540 -0.2070 -0.1439
 5961UDC     C965569   2.047  12.575  11.720  0.0921  0.7095 -0.6719
 5961UDC    C1065570   2.120  12.452  11.671  0.6639  0.3336  0.5918
 5961UDC    C1165571   2.025  12.330  11.626 -0.0721 -0.0911  0.5091
 5962UDC     C165572   3.788  10.874  15.191 -0.9743 -0.1625  0.1184
 5962UDC     C265573   3.704  10.835  15.320  0.0322 -0.2393  0.4841
 5962UDC     C365574   3.794  10.763  15.421 -0.0859  0.0679 -1.1212
 5962UDC     C465575   3.715  10.742  15.548  0.6028  0.3814  0.0347
 5962UDC     C565576   3.813  10.708  15.666  0.3419 -0.1935  0.9257
 5962UDC     C665577   3.747  10.677  15.801 -0.0949 -0.1126  0.4819
 5962UDC     C765578   3.825  10.583  15.893 -0.2074 -0.0429 -0.5622
 5962UDC     C865579   3.891  10.447  15.850 -1.0112 -0.5532  0.2145
 5962UDC     C965580   3.985  10.396  15.958  0.4955  0.0582 -0.9869
 5962UDC    C1065581   4.124  10.472  15.951  0.7337  0.9258  1.4628
 5962UDC    C1165582   4.238  10.429  15.849  0.4407 -0.1454  0.8083
 5963UDC     C165583   6.546   8.270   1.773  0.0500  0.5691  0.7375
 5963UDC     C265584   6.473   8.400   1.796 -0.3162 -0.8829 -0.3654
 5963UDC     C365585   6.436   8.436   1.942  0.3409 -0.2145 -0.7789
 5963UDC     C465586   6.408   8.581   1.958 -0.0165 -1.1678 -0.3795
 5963UDC     C565587   6.286   8.633   2.043 -0.0800  0.8680 -0.0844
 5963UDC     C665588   6.262   8.767   2.108  0.6638  0.0028  0.1186
 5963UDC     C765589   6.131   8.794   2.180 -0.3685 -1.2955  0.3192
 5963UDC     C865590   6.125   8.941   2.217 -0.7723 -0.5781 -0.5335
 5963UDC     C965591   6.007   8.992   2.284 -0.1521 -0.1814  0.1477
 5963UDC    C1065592   6.006   8.943   2.427 -0.8078 -0.0533 -0.7383
 5963UDC    C1165593   6.085   9.030   2.527  0.7139 -0.8055  0.5806
 5964UDC     C165594  14.018   6.406   5.199 -0.1922 -0.6631 -0.8671
 5964UDC     C265595  14.156   6.354   5.252 -0.0926 -0.0421  0.7127
 5964UDC     C365596  14.238   6.479   5.294 -1.0663 -0.9028  0.3316
 5964UDC     C465597  14.202   6.547   5.432  0.8413 -0.2316  0.6767
 5964UDC     C565598  14.202   6.460   5.562  0.8273  0.1173  0.4661
 5964UDC     C665599  14.091   6.510   5.661 -1.2342 -0.7328 -0.3137
 5964UDC     C765600  13.992   6.402   5.707  0.5178  1.3660 -0.4837
 5964UDC     C865601  14.031   6.329   5.836 -0.3789 -0.9573 -0.3426
 5964UDC     C965602  13.956   6.247   5.937 -0.7268 -0.0102  0.8396
 5964UDC    C1065603  14.039   6.219   6.056 -0.9671  0.3494 -0.6107
 5964UDC    C1165604  13.961   6.162   6.181 -0.6285 -0.5444 -0.5787
 5965UDC     C165605   6.047   0.471  17.442 -0.2258 -2.1206 -0.5512
 5965UDC     C265606   6.062   0.530  17.300  0.3585 -0.3448  0.2802
 5965UDC     C365607   5.942   0.597  17.234  0.3177  0.1781 -0.1613
 5965UDC     C465608   5.987   0.665  17.104  0.0297 -1.2400 -0.2895
 5965UDC     C565609   6.117   0.756  17.097  0.3484 -0.5486 -0.2223
 5965UDC     C665610   6.137   0.828  16.962  0.3711 -1.3624 -0.3978
 5965UDC     C765611   6.263   0.905  16.980 -1.3595  0.5081  0.3604
 5965UDC     C865612   6.383   0.798  16.966 -0.0765 -0.0407  0.1471
 5965UDC     C965613   6.519   0.865  16.978 -0.3665  0.5795  0.2761
 5965UDC    C1065614   6.548   1.011  16.934 -0.2834  0.9106  0.2590
 5965UDC    C1165615   6.688   1.063  16.945  0.0883 -0.8758 -0.7601
 5966UDC     C165616  12.569   6.518   1.003  0.6669 -0.8833 -0.2457
 5966UDC     C265617  12.710   6.494   1.075 -0.6047 -0.8740 -0.1949
 5966UDC     C365618  12.703   6.369   1.163  0.4406 -0.2536 -0.0858
 5966UDC     C465619  12.811   6.358   1.265 -1.5107 -0.8514 -0.6039
 5966UDC     C565620  12.788   6.248   1.375  0.1404  0.3671  0.7726
 5966UDC     C665621  12.809   6.105   1.316  0.8018  1.0078  0.3940
 5966UDC     C765622  12.758   6.000   1.410  0.2526  0.0050  0.3722
 5966UDC     C865623  12.615   6.030   1.454  0.1911  0.3250  0.5933
 5966UDC     C965624  12.543   5.922   1.537  0.6994 -0.7716 -0.5275
 5966UDC    C1065625  12.396   5.894   1.530  0.9427  0.1992  0.6528
 5966UDC    C1165626  12.343   5.785   1.629 -0.5488 -0.5341 -1.0583
 5967UDC     C165627   6.619  17.071  19.602  0.5530 -0.7861  0.3195
 5967UDC     C265628   6.565  16.994  19.723  0.5952 -0.7654  1.6116
 5967UDC     C365629   6.405  17.008  19.722 -0.1550  0.1663  0.4449
 5967UDC     C465630   6.341  16.904  19.825  0.2335 -0.1417  0.6371
 5967UDC     C565631   6.187  16.883  19.821  1.0532 -0.1642 -0.4754
 5967UDC     C665632   6.134  16.834  19.958  0.4589  0.5964  0.4282
 5967UDC     C765633   6.149  16.917  20.086 -0.3036  0.7041  0.3857
 5967UDC     C865634   6.208  16.830  20.193 -0.2752 -0.6963 -0.0173
 5967UDC     C965635   6.126  16.703  20.190 -0.0688  0.9391 -0.6230
 5967UDC    C1065636   6.164  16.592  20.292 -0.5533  0.5119 -0.3174
 5967UDC    C1165637   6.159  16.654  20.429  0.7629  0.4373 -1.0929
 5968UDC     C165638  12.686  13.942   1.080  0.8423 -0.7339  0.3141
 5968UDC     C265639  12.786  14.045   1.021  0.3179  0.7128 -0.2808
 5968UDC     C365640  12.889  14.119   1.103  1.5934  0.0482  0.2786
 5968UDC     C465641  12.812  14.196   1.218  0.6343  0.1606 -0.0302
 5968UDC     C565642  12.880  14.313   1.297  0.1972  0.4193  0.9829
 5968UDC     C665643  12.800  14.372   1.420 -0.6136 -0.6360 -0.6779
 5968UDC     C765644  12.848  14.509   1.474  0.2988  0.0350  0.4135
 5968UDC     C865645  12.742  14.568   1.565  0.6761 -0.8523  0.1135
 5968UDC     C965646  12.606  14.591   1.500 -0.7866  0.0482 -0.2656
 5968UDC    C1065647  12.487  14.642   1.584  0.4439  0.0896  0.5424
 5968UDC    C1165648  12.380  14.682   1.477 -0.0137  0.2908 -0.7201
 5969UDC     C165649  12.155   3.813  10.930  0.6535  0.3894 -0.0169
 5969UDC     C265650  12.180   3.682  10.860 -0.3643  0.0785 -0.2056
 5969UDC     C365651  12.294   3.659  10.751 -0.1823  0.0971 -0.9555
 5969UDC     C465652  12.269   3.531  10.668 -0.1623  0.3589 -0.0960
 5969UDC     C565653  12.403   3.478  10.597  0.3513 -0.5028  0.5334
 5969UDC     C665654  12.397   3.358  10.497  0.3012  0.1204 -0.1536
 5969UDC     C765655  12.427   3.412  10.352 -0.1746  0.3136 -0.3443
 5969UDC     C865656  12.426   3.281  10.263  1.0721  0.5165  0.5437
 5969UDC     C965657  12.558   3.203  10.273  0.5779  0.1839 -0.4284
 5969UDC    C1065658  12.540   3.060  10.217  0.3996 -0.3510  1.1043
 5969UDC    C1165659  12.673   2.980  10.237  1.2621 -0.2920  0.2752
 5970UDC     C165660   1.369  12.146  17.535 -0.2051 -0.1854  0.7418
 5970UDC     C265661   1.342  12.092  17.392  0.2646 -0.5601 -0.2765
 5970UDC     C365662   1.268  11.959  17.370  0.3937 -0.4553 -0.2053
 5970UDC     C465663   1.337  11.826  17.396 -0.1877 -0.6784  0.0300
 5970UDC     C565664   1.492  11.821  17.368 -0.1674  0.0388 -1.1095
 5970UDC     C665665   1.580  11.726  17.452  0.0267  0.1005  1.1095
 5970UDC     C765666   1.723  11.703  17.419 -0.0100 -0.5451  1.1089
 5970UDC     C865667   1.761  11.621  17.293  1.0144  0.1819  0.1624
 5970UDC     C965668   1.888  11.666  17.216  0.5309  0.5805  0.5367
 5970UDC    C1065669   1.916  11.592  17.088 -0.2796  0.4941  0.5174
 5970UDC    C1165670   1.798  11.596  16.989 -0.6072 -0.2104 -0.5569
 5971UDC     C165671   6.525  18.997   7.105 -0.7200 -1.0823 -0.1642
 5971UDC     C265672   6.390  18.972   7.175  0.1500  0.0498 -0.5315
 5971UDC     C365673   6.295  18.885   7.092 -0.0798  0.8263  0.9642
 5971UDC     C465674   6.158  18.854   7.170  0.4237 -0.0553  0.0942
 5971UDC     C565675   6.186  18.759   7.286  0.5236  0.3848  0.7331
 5971UDC     C665676   6.070  18.712   7.379  0.1803 -0.6716  0.3609
 5971UDC     C765677   6.102  18.594   7.469 -0.8334  0.1397 -0.4322
 5971UDC     C865678   6.084  18.636   7.617 -0.4220 -0.8055  0.3273
 5971UDC     C965679   6.098  18.531   7.738  0.9452 -0.8557 -0.0323
 5971UDC    C1065680   6.042  18.591   7.870 -0.1167 -0.1548 -1.4679
 5971UDC    C1165681   6.044  18.459   7.957  0.3092  0.2199  0.7341
 5972UDC     C165682  19.639  19.800  17.543 -0.3283  0.3401  0.9848
 5972UDC     C265683  19.771  19.767  17.478 -0.5807 -0.2530 -0.3292
 5972UDC     C365684  19.855  19.884  17.422  0.3912  0.9157  0.3024
 5972UDC     C465685  19.990  19.878  17.498  1.4987  0.3877 -0.0903
 5972UDC     C565686  20.082  19.992  17.446  0.0341  0.0621 -1.5443
 5972UDC     C665687  20.106  20.102  17.547  0.5512  0.3158 -0.2431
 5972UDC     C765688  20.212  20.208  17.512 -0.3950 -0.6415 -0.8295
 5972UDC     C865689  20.359  20.168  17.506  0.9303  0.4195 -1.3201
 5972UDC     C965690  20.454  20.235  17.402  0.8000  0.6970  0.3113
 5972UDC    C1065691  20.597  20.213  17.424  1.0305  0.2370  0.7179
 5972UDC    C1165692  20.619  20.188  17.568 -0.4692 -0.4427 -0.3013
 5973UDC     C165693  14.351  15.471  14.347 -0.6454 -0.0258 -0.8344
 5973UDC     C265694  14.356  15.615  14.384 -1.1170 -0.4773  0.4843
 5973UDC     C365695  14.406  15.654  14.524  0.8608  0.0946 -0.1829
 5973UDC     C465696  14.426  15.809  14.545 -0.0516 -0.2165 -0.3044
 5973UDC     C565697  14.530  15.873  14.447  0.4629 -0.5951 -0.1649
 5973UDC     C665698  14.510  16.026  14.469  0.1290  0.4699  0.4543
 5973UDC     C765699  14.518  16.060  14.618 -0.0257  0.2425 -1.1470
 5973UDC     C865700  14.487  16.207  14.632  0.3755 -0.3948 -0.1936
 5973UDC     C965701  14.353  16.266  14.598 -0.6482 -0.1962 -0.5249
 5973UDC    C1065702  14.237  16.207  14.684  0.0598 -1.0776  0.3420
 5973UDC    C1165703  14.256  16.242  14.835  0.1676 -0.9532  0.0024
 5974UDC     C165704  18.858   3.979  19.967 -1.0202 -0.0403  0.1560
 5974UDC     C265705  18.873   3.974  20.120  0.5837 -0.7355 -0.3496
 5974UDC     C365706  18.753   3.897  20.193  0.2482  0.9041  0.5007
 5974UDC     C465707  18.633   3.970  20.222  0.7206  0.1532 -0.8279
 5974UDC     C565708  18.527   3.868  20.276  0.3287 -0.0604  0.9200
 5974UDC     C665709  18.409   3.825  20.182 -0.4441 -0.3181 -0.4839
 5974UDC     C765710  18.296   3.761  20.276  0.3466  0.2287  0.7964
 5974UDC     C865711  18.158   3.702  20.211 -1.1059 -0.9314  0.5266
 5974UDC     C965712  18.165   3.599  20.100 -0.1295  0.0942  0.2132
 5974UDC    C1065713  18.037   3.537  20.033 -0.4003  0.3115 -0.4690
 5974UDC    C1165714  17.976   3.447  20.137 -0.1873 -0.3311  1.5203
 5975UDC     C165715  15.943  14.188   3.556 -0.5272 -0.3895  0.7940
 5975UDC     C265716  15.831  14.227   3.457  0.7552  0.6492  0.4267
 5975UDC     C365717  15.846  14.168   3.318  0.6575  0.1097  0.1806
 5975UDC     C465718  15.733  14.214   3.222  0.8274  0.5296 -0.5697
 5975UDC     C565719  15.699  14.366   3.218 -0.1017 -0.9259 -0.0320
 5975UDC     C665720  15.570  14.381   3.139  0.0235 -0.0027 -0.0070
 5975UDC     C765721  15.450  14.302   3.182 -0.9627  0.6329  0.2577
 5975UDC     C865722  15.323  14.358   3.118 -0.7286 -0.1762 -0.0936
 5975UDC     C965723  15.182  14.323   3.178 -0.2732 -0.3641 -0.1383
 5975UDC    C1065724  15.074  14.341   3.070 -0.9171 -0.6446 -0.3229
 5975UDC    C1165725  14.945  14.266   3.070  0.1927 -0.3240 -0.4688
 5976UDC     C165726   7.658  12.631  11.021 -0.1516 -0.0344 -0.7667
 5976UDC     C265727   7.756  12.726  11.091 -0.1616 -1.2825 -0.2564
 5976UDC     C365728   7.693  12.860  11.109  0.2702 -0.4570 -0.1820
 5976UDC     C465729   7.641  12.925  10.979 -0.1228 -0.1779 -0.5564
 5976UDC     C565730   7.549  13.049  11.000 -0.9334  1.3887 -0.1284
 5976UDC     C665731   7.569  13.175  10.914  0.2265 -0.0433  0.6587
 5976UDC     C765732   7.482  13.293  10.953 -0.6118 -0.1069  0.3553
 5976UDC     C865733   7.339  13.310  10.901 -0.3198  1.0104 -0.4425
 5976UDC     C965734   7.248  13.186  10.924  0.4020  0.4752 -0.1874
 5976UDC    C1065735   7.131  13.187  10.820 -0.7763  0.2367  0.0188
 5976UDC    C1165736   7.197  13.217  10.682  0.3849 -1.1051  0.2130
 5977UDC     C165737  19.676   8.071  19.233 -0.6792 -0.3692 -0.2876
 5977UDC     C265738  19.782   8.042  19.344 -0.1832  0.2208  0.3968
 5977UDC     C365739  19.919   8.022  19.273  0.0303 -0.2987 -0.5567
 5977UDC     C465740  19.986   7.884  19.299  0.5202 -0.3982 -0.6575
 5977UDC     C565741  20.102   7.877  19.199 -0.6919 -0.4342 -0.2650
 5977UDC     C665742  20.236   7.870  19.274  0.1126  0.8356 -0.5325
 5977UDC     C765743  20.372   7.852  19.213  0.3619  0.1446  0.3209
 5977UDC     C865744  20.504   7.900  19.272 -0.9020  0.2400  0.3113
 5977UDC     C965745  20.539   8.047  19.252  0.3377 -0.1229 -0.4127
 5977UDC    C1065746  20.548   8.114  19.110 -0.4440 -1.0455  0.3593
 5977UDC    C1165747  20.581   8.263  19.112 -0.3200 -0.5359 -0.0739
 5978UDC     C165748   0.050   8.419   4.970 -0.2733  0.2770 -0.1052
 5978UDC     C265749  -0.015   8.416   4.827 -0.1160 -0.0223  0.5470
 5978UDC     C365750  -0.031   8.556   4.775 -0.5480 -0.1701  0.2169
 5978UDC     C465751  -0.070   8.592   4.627  0.5004 -0.6381 -0.2435
 5978UDC     C565752  -0.139   8.731   4.623 -0.9229  0.2872 -1.2726
 5978UDC     C665753  -0.134   8.808   4.490  0.2362  0.2633  0.4911
 5978UDC     C765754  -0.214   8.740   4.380  0.4930 -0.4913 -0.1733
 5978UDC     C865755  -0.262   8.862   4.297  0.9685 -0.2565 -0.0928
 5978UDC     C965756  -0.361   8.941   4.385 -0.4394  1.0498  0.6040
 5978UDC    C1065757  -0.496   8.939   4.330  0.3392 -0.2795 -0.7546
 5978UDC    C1165758  -0.589   9.005   4.431  0.1094 -0.7583 -0.5487
 5979UDC     C165759  12.562  10.602   9.073 -0.7511  0.1648 -0.2426
 5979UDC     C265760  12.638  10.608   9.203  0.6716 -0.0984 -0.1088
 5979UDC     C365761  12.574  10.719   9.285 -0.4666 -0.3323  0.6425
 5979UDC     C465762  12.564  10.684   9.433  0.0159 -0.0449 -0.4134
 5979UDC     C565763  12.474  10.758   9.537 -0.5499  0.0105  0.0908
 5979UDC     C665764  12.495  10.907   9.562  1.2663 -0.7003  0.3102
 5979UDC     C765765  12.382  10.992   9.627  0.7269  0.2805  0.3294
 5979UDC     C865766  12.267  11.047   9.543 -0.1909 -0.7653  0.3398
 5979UDC     C965767  12.208  11.164   9.619 -1.0719 -0.0182  0.2525
 5979UDC    C1065768  12.105  11.226   9.529 -0.4869  0.3162  0.2674
 5979UDC    C1165769  12.005  11.311   9.606 -0.5292  0.3525  0.7586
 5980UDC     C165770  17.290  18.908  13.125 -0.9927  0.1199 -1.1561
 5980UDC     C265771  17.206  18.792  13.183  0.0557  0.0258 -0.5516
 5980UDC     C365772  17.293  18.668  13.223  0.7147 -0.1698 -0.6146
 5980UDC     C465773  17.372  18.625  13.097 -0.3381  0.2189 -0.1279
 5980UDC     C565774  17.287  18.550  12.988 -0.2149 -0.6117  0.3205
 5980UDC     C665775  17.367  18.491  12.866 -0.9435 -0.3123  0.1536
 5980UDC     C765776  17.262  18.425  12.775  0.0243  0.1870  1.1122
 5980UDC     C865777  17.168  18.327  12.852  0.4172  0.1723  0.3527
 5980UDC     C965778  17.146  18.199  12.760  0.0908 -0.1349 -0.6197
 5980UDC    C1065779  17.121  18.261  12.626  0.7572 -0.0516  0.4624
 5980UDC    C1165780  17.023  18.206  12.524 -0.0923  0.8414 -0.2184
 5981UDC     C165781  13.070   4.772  19.830  0.7135 -0.6458  0.7517
 5981UDC     C265782  12.976   4.743  19.954 -0.1979 -0.3822 -0.2384
 5981UDC     C365783  12.843   4.815  19.914 -0.0147  0.1195  0.2711
 5981UDC     C465784  12.734   4.728  19.839  0.0332  0.2712  0.3917
 5981UDC     C565785  12.622   4.818  19.765  1.2254  0.2717 -0.4475
 5981UDC     C665786  12.532   4.902  19.861  0.1466 -1.0761  0.0206
 5981UDC     C765787  12.469   5.033  19.791  0.4766 -0.4097  1.0016
 5981UDC     C865788  12.333   5.085  19.830  0.5458 -0.3738 -0.2268
 5981UDC     C965789  12.307   5.225  19.789 -0.1240  0.6087  0.5649
 5981UDC    C1065790  12.388   5.341  19.840 -0.5735 -0.1840 -0.6797
 5981UDC    C1165791  12.329   5.422  19.957 -0.0646 -0.4682 -0.6605
 5982UDC     C165792   3.516   6.594  15.601 -0.9653 -0.1765  1.5255
 5982UDC     C265793   3.476   6.641  15.459  0.0796 -0.5042 -0.7130
 5982UDC     C365794   3.350   6.733  15.456  0.2429  0.2875 -0.0079
 5982UDC     C465795   3.279   6.748  15.320 -0.2407  0.1665  0.3353
 5982UDC     C565796   3.137   6.762  15.358 -0.2533 -0.7659  0.5584
 5982UDC     C665797   3.106   6.648  15.452  0.0593  0.6994 -0.6085
 5982UDC     C765798   3.028   6.542  15.362 -1.1120  0.3873  0.0047
 5982UDC     C865799   2.957   6.426  15.446 -0.3420  0.1706 -0.3100
 5982UDC     C965800   2.863   6.332  15.350 -1.0665  0.1642 -0.3613
 5982UDC    C1065801   2.826   6.201  15.420  0.7068 -0.2259 -0.0201
 5982UDC    C1165802   2.783   6.080  15.329  0.8077 -1.0372 -0.0688
 5983UDC     C165803  13.312  14.185  19.039 -0.4292  0.8744  0.2984
 5983UDC     C265804  13.292  14.107  18.906 -0.4228 -0.9129 -1.4928
 5983UDC     C365805  13.232  13.971  18.934 -0.4913 -0.3637  0.5464
 5983UDC     C465806  13.329  13.856  18.945 -0.7216  0.6452  0.6976
 5983UDC     C565807  13.417  13.842  18.817 -0.3380 -0.0383  0.4662
 5983UDC     C665808  13.518  13.733  18.824 -0.8553  0.0610 -0.1982
 5983UDC     C765809  13.436  13.607  18.854  0.0684  0.9208 -0.2177
 5983UDC     C865810  13.543  13.498  18.854 -0.9741 -0.1967 -0.7975
 5983UDC     C965811  13.500  13.368  18.800 -0.0332  0.2854  0.0821
 5983UDC    C1065812  13.503  13.234  18.884  0.0050 -0.2164  0.3787
 5983UDC    C1165813  13.415  13.125  18.813 -1.2592  0.5353  0.3338
 5984UDC     C165814  12.079   4.146  16.341  0.8367  0.1540 -0.7782
 5984UDC     C265815  11.953   4.059  16.361  0.0164  0.0874  0.1716
 5984UDC     C365816  11.847   4.119  16.453 -0.1333 -0.2003 -0.9755
 5984UDC     C465817  11.787   4.246  16.404  0.6410 -0.1811  0.5425
 5984UDC     C565818  11.667   4.201  16.320  0.4447  0.2068  0.4257
 5984UDC     C665819  11.540   4.189  16.404  0.4704 -0.2620  1.1500
 5984UDC     C765820  11.462   4.317  16.446  0.7414 -0.1489 -0.2374
 5984UDC     C865821  11.319   4.294  16.507 -0.1905  0.6662 -0.1657
 5984UDC     C965822  11.231   4.202  16.425 -0.2911  0.4922  1.0140
 5984UDC    C1065823  11.109   4.162  16.509  0.3953  0.9073  0.3292
 5984UDC    C1165824  11.017   4.277  16.530  0.8365  0.3716 -0.2246
 5985UDC     C165825  14.173   4.415   1.738  0.7381  0.0195 -0.1891
 5985UDC     C265826  14.157   4.432   1.888  1.3789  1.1569 -1.0317
 5985UDC     C365827  14.188   4.557   1.962  0.5198  0.4612 -0.1922
 5985UDC     C465828  14.067   4.641   1.961 -0.4454 -0.0154 -0.4377
 5985UDC     C565829  14.084   4.792   1.999  0.1175 -0.7265 -0.4214
 5985UDC     C665830  13.956   4.874   1.975 -0.4603  0.1986 -0.6779
 5985UDC     C765831  13.901   4.855   1.837 -0.1347  0.6237  0.2653
 5985UDC     C865832  13.800   4.964   1.798 -0.8320  0.8362 -0.7911
 5985UDC     C965833  13.768   4.952   1.645  0.0026 -1.0353 -0.8530
 5985UDC    C1065834  13.821   5.070   1.559  0.8187  0.8229  0.0748
 5985UDC    C1165835  13.782   5.033   1.415  0.5478  0.2662 -1.0608
 5986UDC     C165836  19.752   0.568  13.879 -0.3570 -0.3744  0.6667
 5986UDC     C265837  19.628   0.622  13.941 -0.1501 -0.5562 -0.7226
 5986UDC     C365838  19.504   0.570  13.867  0.2735  1.5889 -0.7275
 5986UDC     C465839  19.482   0.415  13.878  0.8201 -0.1071  0.6064
 5986UDC     C565840  19.326   0.400  13.906  0.4008 -0.1328 -0.0999
 5986UDC     C665841  19.198   0.458  13.845  0.2186  0.2824  1.0477
 5986UDC     C765842  19.054   0.427  13.906 -0.2136  0.1441 -0.1111
 5986UDC     C865843  19.000   0.537  14.009  0.4634  0.0582  0.1915
 5986UDC     C965844  19.063   0.507  14.146  1.2450  0.3203 -0.3553
 5986UDC    C1065845  19.042   0.627  14.237  0.5116  0.7921 -0.4493
 5986UDC    C1165846  18.905   0.625  14.308  0.4225  0.6972 -0.9047
 5987UDC     C165847   9.238  16.368   0.898  0.3273  0.2672 -0.3826
 5987UDC     C265848   9.109  16.314   0.834 -0.2977 -1.8355 -0.2628
 5987UDC     C365849   9.096  16.352   0.686  1.3700  1.1318  0.5433
 5987UDC     C465850   9.226  16.306   0.622  0.0868 -0.8074 -0.1631
 5987UDC     C565851   9.170  16.230   0.503  0.3044 -0.0412  0.5625
 5987UDC     C665852   9.278  16.202   0.390  0.7734  0.4743  0.2874
 5987UDC     C765853   9.395  16.108   0.421 -0.1745  0.1492 -0.2285
 5987UDC     C865854   9.478  16.072   0.303  0.1713  0.8048 -0.0581
 5987UDC     C965855   9.624  16.050   0.349  0.0923 -0.5484  1.0763
 5987UDC    C1065856   9.724  16.064   0.230 -0.2848 -0.1471 -0.2975
 5987UDC    C1165857   9.879  16.076   0.249 -0.5781  1.0465  0.9657
 5988UDC     C165858  18.984  18.703  19.001 -1.1667 -0.5283  0.7593
 5988UDC     C265859  19.017  18.563  18.946 -0.4433 -0.0077  0.2436
 5988UDC     C365860  19.107  18.470  19.029 -0.5629  0.2631 -0.5807
 5988UDC     C465861  19.150  18.339  18.956  0.4534  0.3461  0.3436
 5988UDC     C565862  19.239  18.359  18.838  0.1716  0.0876  0.6123
 5988UDC     C665863  19.382  18.379  18.884 -0.9236 -1.3849  0.7528
 5988UDC     C765864  19.464  18.259  18.925  0.5824  0.1536  0.2833
 5988UDC     C865865  19.480  18.149  18.824  0.6635 -0.3870  0.1904
 5988UDC     C965866  19.576  18.188  18.718 -0.4613  0.0651 -0.5618
 5988UDC    C1065867  19.733  18.216  18.747  0.9253 -0.8279 -0.4440
 5988UDC    C1165868  19.793  18.299  18.632  0.0274  0.2312 -0.0440
 5989UDC     C165869  19.256   8.496  15.534  0.2027 -0.3859 -0.8257
 5989UDC     C265870  19.277   8.395  15.648  0.0818 -0.6672 -0.1859
 5989UDC     C365871  19.418   8.355  15.672 -0.8015 -1.1307  0.0768
 5989UDC     C465872  19.517   8.468  15.694  0.2795 -0.8229 -0.3401
 5989UDC     C565873  19.620   8.440  15.802 -0.5518  0.1154  0.2884
 5989UDC     C665874  19.740   8.344  15.782 -0.0119 -0.3802 -0.6732
 5989UDC     C765875  19.696   8.194  15.778  0.1790  0.2002  0.9616
 5989UDC     C865876  19.617   8.138  15.894 -0.0833  0.1460 -0.4226
 5989UDC     C965877  19.656   8.209  16.033 -0.6306  1.1901 -0.0643
 5989UDC    C1065878  19.574   8.169  16.151  0.7866 -1.0347 -0.6882
 5989UDC    C1165879  19.444   8.247  16.181 -0.8568 -0.4783 -0.6212
 5990UDC     C165880  18.550   4.278  17.780 -0.3885  0.8164 -0.1417
 5990UDC     C265881  18.515   4.335  17.921 -0.5471 -0.1579 -0.5818
 5990UDC     C365882  18.519   4.222  18.024  0.3512  1.6868 -0.3363
 5990UDC     C465883  18.673   4.211  18.048 -0.3590 -0.5581  0.1781
 5990UDC     C565884  18.742   4.345  18.088 -0.4759 -0.2238  0.3087
 5990UDC     C665885  18.888   4.357  18.032  0.4591  1.5176  0.1946
 5990UDC     C765886  18.879   4.379  17.875  0.5975  0.1063  0.6449
 5990UDC     C865887  19.016   4.418  17.818 -0.4628 -0.8534  0.2310
 5990UDC     C965888  19.028   4.435  17.664 -0.6246 -0.1943 -0.6446
 5990UDC    C1065889  18.954   4.558  17.606  1.4221 -0.6133  0.3944
 5990UDC    C1165890  18.795   4.565  17.595 -0.1453 -1.0051 -0.8363
 5991UDC     C165891   5.845   5.981   4.653  1.6948  0.0303 -0.3478
 5991UDC     C265892   5.857   6.018   4.803  0.1057 -0.4789 -0.1759
 5991UDC     C365893   5.899   5.901   4.892 -0.3640 -0.3506  0.0028
 5991UDC     C465894   5.952   5.949   5.029  0.1500  0.0710 -1.0385
 5991UDC     C565895   5.845   6.002   5.132  0.0072 -0.2581  0.3050
 5991UDC     C665896   5.788   6.145   5.117 -0.4022  0.0107  0.7148
 5991UDC     C765897   5.896   6.249   5.114 -0.0950 -0.7133 -0.1570
 5991UDC     C865898   5.970   6.270   5.242 -0.0913  0.0456  0.0173
 5991UDC     C965899   6.053   6.394   5.256  0.8531 -0.7481 -0.1589
 5991UDC    C1065900   6.101   6.433   5.396 -0.0694  0.1136 -0.3366
 5991UDC    C1165901   6.015   6.529   5.476 -1.0689 -0.0291  0.0845
 5992UDC     C165902   3.403   3.780  11.667 -0.9553  0.1868  0.8487
 5992UDC     C265903   3.525   3.805  11.582 -1.1812 -0.3175  0.1394
 5992UDC     C365904   3.601   3.679  11.542  0.2495  0.3547  0.3614
 5992UDC     C465905   3.720   3.657  11.634 -0.0151 -0.7003 -0.5090
 5992UDC     C565906   3.736   3.503  11.661 -0.0165 -0.3641  0.4975
 5992UDC     C665907   3.711   3.471  11.808  0.5269  0.1746 -0.0866
 5992UDC     C765908   3.853   3.461  11.874  0.5064  0.6064  1.1975
 5992UDC     C865909   3.953   3.344  11.846 -0.1992 -0.7449  0.4276
 5992UDC     C965910   4.101   3.329  11.894  0.0616  0.0949 -0.1153
 5992UDC    C1065911   4.173   3.210  11.843  0.1294  0.3725 -0.0338
 5992UDC    C1165912   4.329   3.235  11.825 -0.3992 -0.5909  1.3803
 5993UDC     C165913   6.305   9.709  10.448 -0.5784  0.0063  0.1536
 5993UDC     C265914   6.321   9.553  10.432 -1.2073 -0.5770 -0.8108
 5993UDC     C365915   6.381   9.493  10.567 -0.2346 -0.6181 -0.4638
 5993UDC     C465916   6.428   9.350  10.544  0.7228  0.3176 -0.2618
 5993UDC     C565917   6.534   9.298  10.640  1.1436  0.7027  0.0882
 5993UDC     C665918   6.493   9.309  10.787 -0.6091 -0.1939 -0.0774
 5993UDC     C765919   6.593   9.248  10.885 -0.3818  0.2612  0.6651
 5993UDC     C865920   6.555   9.285  11.029 -0.4496  0.3387 -0.7732
 5993UDC     C965921   6.616   9.191  11.133 -0.3259 -0.3756 -0.4967
 5993UDC    C1065922   6.635   9.260  11.277 -0.2384  0.2021  0.6160
 5993UDC    C1165923   6.745   9.372  11.255 -0.3519  0.8930  1.4087
 5994UDC     C165924  18.356   1.926   1.514 -0.0694 -0.5350  0.2987
 5994UDC     C265925  18.388   2.014   1.391  0.2272  0.6447 -0.0849
 5994UDC     C365926  18.275   2.025   1.290 -0.2415 -0.8508  0.2039
 5994UDC     C465927  18.177   2.134   1.270 -0.2800 -0.5702 -0.8973
 5994UDC     C565928  18.066   2.090   1.173 -0.0333 -0.1864 -1.4995
 5994UDC     C665929  17.949   2.185   1.172  0.9512  0.4888 -0.5867
 5994UDC     C765930  17.967   2.317   1.249  0.3237 -0.0355 -0.5285
 5994UDC     C865931  17.841   2.348   1.334 -0.1486  0.3820 -0.0217
 5994UDC     C965932  17.872   2.463   1.436 -0.0250  0.9046  0.4599
 5994UDC    C1065933  17.766   2.538   1.516  0.3480 -0.1242 -0.1055
 5994UDC    C1165934  17.626   2.549   1.469 -0.4387  0.4801 -0.8453
 5995UDC     C165935  11.520  15.360   5.145  1.3696 -0.1225 -0.4960
 5995UDC     C265936  11.612  15.278   5.057 -1.0166  1.0248 -0.1385
 5995UDC     C365937  11.756  15.249   5.117  0.2518  0.2714  0.1988
 5995UDC     C465938  11.770  15.116   5.200  0.7464  0.3616  0.5224
 5995UDC     C565939  11.763  14.983   5.128  0.5820  1.5625  0.1849
 5995UDC     C665940  11.773  14.866   5.224 -0.4305  1.1385  0.4165
 5995UDC     C765941  11.791  14.735   5.136  0.7954 -0.7759 -0.6701
 5995UDC     C865942  11.874  14.631   5.217  0.4603 -0.2561 -0.6385
 5995UDC     C965943  11.897  14.487   5.175  0.4169 -0.0591  0.7756
 5995UDC    C1065944  11.996  14.415   5.282  0.5874  0.3195  0.0010
 5995UDC    C1165945  12.141  14.476   5.285  0.4761 -0.6517 -1.0388
 5996UDC     C165946  10.688  16.076  14.939  0.7569  0.1182 -0.6626
 5996UDC     C265947  10.669  15.946  15.006 -0.8004 -0.5742 -1.7068
 5996UDC     C365948  10.746  15.925  15.131 -0.4594 -0.4573 -0.2034
 5996UDC     C465949  10.745  15.782  15.185  0.5993 -1.5985  0.5846
 5996UDC     C565950  10.787  15.665  15.089  0.6271 -0.6123 -0.7364
 5996UDC     C665951  10.839  15.532  15.158  0.4234  0.0254  0.2233
 5996UDC     C765952  10.892  15.423  15.065  0.7032  1.1388 -0.4363
 5996UDC     C865953  10.955  15.314  15.151 -1.0003 -0.4698  0.4795
 5996UDC     C965954  11.099  15.328  15.203  1.1559 -1.0420 -0.9034
 5996UDC    C1065955  11.155  15.188  15.226 -0.8823  2.1082 -0.2939
 5996UDC    C1165956  11.115  15.112  15.355  0.0132  0.1057 -0.4889
 5997UDC     C165957   4.741   8.432  15.411  0.0003 -0.8308  0.0369
 5997UDC     C265958   4.822   8.534  15.330  0.3047  0.2054  0.3607
 5997UDC     C365959   4.974   8.520  15.358  1.0397  0.3497 -0.3304
 5997UDC     C465960   5.070   8.637  15.403 -0.5045 -0.1289 -0.3979
 5997UDC     C565961   5.159   8.681  15.283 -0.0533 -0.6848 -0.6091
 5997UDC     C665962   5.201   8.826  15.277 -0.5914 -0.2730  0.3487
 5997UDC     C765963   5.269   8.884  15.405 -0.2788 -0.3406 -0.1690
 5997UDC     C865964   5.290   9.042  15.400  0.7319 -0.3123  0.1334
 5997UDC     C965965   5.407   9.099  15.482 -0.5605  0.3074  0.0261
 5997UDC    C1065966   5.359   9.236  15.542 -0.4797 -0.2157  0.0631
 5997UDC    C1165967   5.473   9.339  15.580  0.0824  1.1265 -0.2709
 5998UDC     C165968  12.415  12.241   9.975 -0.1894 -0.7788  0.0979
 5998UDC     C265969  12.545  12.287   9.905  0.1538  0.7217  0.3503
 5998UDC     C365970  12.677  12.245   9.973  0.2970  0.9893  0.4119
 5998UDC     C465971  12.790  12.274   9.875  0.1868  0.4878  0.5608
 5998UDC     C565972  12.938  12.270   9.921  0.6078 -0.6036  0.5524
 5998UDC     C665973  12.970  12.360  10.041 -0.5643  0.1033 -0.5496
 5998UDC     C765974  13.120  12.345  10.080 -0.2904 -0.6813 -0.2886
 5998UDC     C865975  13.151  12.396  10.217 -0.1476  0.5882 -1.0286
 5998UDC     C965976  13.226  12.295  10.308  0.0333  0.7864  1.3499
 5998UDC    C1065977  13.372  12.299  10.260  0.3135  0.8213 -0.7719
 5998UDC    C1165978  13.484  12.216  10.337 -0.5959  0.8530 -0.2260
 5999UDC     C165979  16.326  19.085   0.551 -0.1668  0.0568 -0.1502
 5999UDC     C265980  16.187  19.031   0.569 -0.5435  0.0913  0.5602
 5999UDC     C365981  16.117  19.003   0.430 -0.3865 -1.0051 -0.0963
 5999UDC     C465982  15.994  18.925   0.459  0.5960  0.2724 -0.2988
 5999UDC     C565983  15.883  18.899   0.352  0.0532  0.0214  0.5146
 5999UDC     C665984  15.772  18.799   0.391  0.4058 -0.0021  0.6617
 5999UDC     C765985  15.768  18.661   0.315 -0.2100 -0.4164  0.0471
 5999UDC     C865986  15.635  18.596   0.324  0.4526 -1.6472  0.8101
 5999UDC     C965987  15.658  18.458   0.279  0.2935  0.1620 -1.2443
 5999UDC    C1065988  15.525  18.388   0.266 -0.5997 -0.0368 -0.3063
 5999UDC    C1165989  15.429  18.413   0.380  0.2024  0.1560 -0.8114
 6000UDC     C165990  10.609  10.943   2.459 -0.7534 -1.2542  1.6812
 6000UDC     C265991  10.454  10.934   2.482 -1.2364 -0.0451  0.7518
 6000UDC     C365992  10.375  11.061   2.458  1.0732 -0.1992  0.1105
 6000UDC     C465993  10.353  11.065   2.310  1.2846 -0.0814  0.0642
 6000UDC     C565994  10.259  11.186   2.292  0.7311  0.9596  0.1350
 6000UDC     C665995  10.236  11.246   2.149 -0.9213  0.5059 -0.0906
 6000UDC     C765996  10.372  11.267   2.076 -0.7466 -0.0791 -0.6089
 6000UDC     C865997  10.359  11.254   1.925  0.3302 -0.3976  0.2021
 6000UDC     C965998  10.425  11.356   1.832 -0.7118 -0.0022  0.7224
 6000UDC    C1065999  10.346  11.381   1.699  0.7992  1.1087 -0.8874
 6000UDC    C1166000  10.437  11.406   1.580 -0.3468 -0.1711 -0.3792
 6001UDC     C166001   6.033  11.674   1.624 -0.8312  0.3525  0.0224
 6001UDC     C266002   6.107  11.787   1.555  0.5877  0.4853  0.2399
 6001UDC     C366003   6.048  11.828   1.417  1.0839  0.4726 -0.5975
 6001UDC     C466004   6.139  11.910   1.330  0.3559  0.1556 -0.2475
 6001UDC     C566005   6.116  11.933   1.177  0.7599  0.5589 -0.7044
 6001UDC     C666006   5.969  11.981   1.173 -0.1149 -0.0263  0.0524
 6001UDC     C766007   5.915  11.990   1.028  0.0063  0.8977 -1.1709
 6001UDC     C866008   5.787  12.060   1.019 -0.4795 -0.3579  0.0107
 6001UDC     C966009   5.687  12.016   0.910 -0.4592 -0.3117 -0.1123
 6001UDC    C1066010   5.731  12.067   0.781 -0.2366  0.1861  0.1284
 6001UDC    C1166011   5.676  11.988   0.661  0.0673  0.2192  0.5840
 6002UDC     C166012  10.403  13.485  18.607 -0.2704  0.3288 -0.1842
 6002UDC     C266013  10.523  13.385  18.605  1.2036 -0.1173 -0.7569
 6002UDC     C366014  10.552  13.328  18.472  0.5780 -0.2240 -0.1968
 6002UDC     C466015  10.688  13.255  18.467 -0.6030  0.6792 -0.7356
 6002UDC     C566016  10.716  13.180  18.603 -0.1661 -0.1276  0.2429
 6002UDC     C666017  10.866  13.159  18.617 -0.2474 -0.2951  0.8658
 6002UDC     C766018  10.889  13.066  18.738  0.2502  0.7938  0.3328
 6002UDC     C866019  10.925  12.922  18.701 -0.2612  0.8103 -0.2790
 6002UDC     C966020  10.807  12.836  18.662  0.4384 -0.9307  0.2597
 6002UDC    C1066021  10.845  12.688  18.668  0.2042  1.7991 -0.7678
 6002UDC    C1166022  10.933  12.639  18.552  0.5016 -1.2591  0.1588
 6003UDC     C166023  11.758   1.911   5.977  0.4268 -0.0660 -0.0268
 6003UDC     C266024  11.826   2.045   5.944  0.1085 -0.3111  1.3806
 6003UDC     C366025  11.902   2.100   6.066  0.8439 -0.6567 -0.2791
 6003UDC     C466026  11.937   2.250   6.080  0.0277  0.7347  0.6792
 6003UDC     C566027  12.001   2.275   6.221 -0.1981  0.7607 -0.6230
 6003UDC     C666028  12.133   2.195   6.236 -0.9551 -1.3545 -1.2042
 6003UDC     C766029  12.229   2.244   6.349 -1.2146 -0.2874  0.2444
 6003UDC     C866030  12.372   2.173   6.373  0.8154  0.1894 -0.1099
 6003UDC     C966031  12.480   2.202   6.262 -0.0679  0.9751  0.2108
 6003UDC    C1066032  12.608   2.275   6.309 -0.2871 -0.6249 -0.6417
 6003UDC    C1166033  12.700   2.177   6.390 -0.0348  0.0262  0.3338
 6004UDC     C166034  12.900  16.566  10.772  0.1209 -0.1296 -0.3975
 6004UDC     C266035  12.824  16.505  10.886 -0.3572  0.5183 -0.3225
 6004UDC     C366036  12.759  16.610  10.972  0.2882  0.1133 -0.0271
 6004UDC     C466037  12.711  16.570  11.113  1.2305  1.0516 -0.0929
 6004UDC     C566038  12.612  16.673  11.180  0.6887 -0.3021 -0.8210
 6004UDC     C666039  12.558  16.612  11.315  0.1842 -0.9488  0.7395
 6004UDC     C766040  12.653  16.551  11.425  0.9466  0.9615 -0.5586
 6004UDC     C866041  12.767  16.635  11.471  0.5038 -0.6785 -1.5430
 6004UDC     C966042  12.821  16.601  11.615  0.4741 -0.0051 -0.1560
 6004UDC    C1066043  12.918  16.706  11.669  0.1410  0.7426  0.5548
 6004UDC    C1166044  13.062  16.690  11.616  0.7728 -0.3988  0.2074
 6005UDC     C166045  17.037   8.643   4.265  0.3825 -1.3552 -0.8039
 6005UDC     C266046  17.011   8.736   4.391 -0.7430  0.2553  0.5121
 6005UDC     C366047  17.064   8.661   4.518  0.9644 -0.7155  0.0285
 6005UDC     C466048  17.072   8.737   4.655 -0.2884 -0.3235 -0.0751
 6005UDC     C566049  17.195   8.816   4.690 -1.0852  0.4132  0.0289
 6005UDC     C666050  17.191   8.861   4.829 -0.2629  0.0821 -0.2565
 6005UDC     C766051  17.256   8.757   4.929 -0.9050 -0.1446  1.1525
 6005UDC     C866052  17.195   8.778   5.065 -0.0984 -0.0999 -0.0008
 6005UDC     C966053  17.253   8.691   5.181  0.6791 -0.2403 -0.7617
 6005UDC    C1066054  17.191   8.730   5.320 -0.1093  0.7863  0.2567
 6005UDC    C1166055  17.293   8.737   5.439 -0.0706 -0.6630  0.3864
 6006UDC     C166056  18.891   3.869  14.612  0.2342  0.5576  0.3161
 6006UDC     C266057  18.762   3.907  14.530 -0.1181 -1.3116 -0.0122
 6006UDC     C366058  18.762   4.054  14.467 -0.5777 -0.8040  0.9691
 6006UDC     C466059  18.645   4.084  14.374  0.2378  0.1097 -0.6921
 6006UDC     C566060  18.633   4.233  14.326 -0.4240  0.2715 -0.7325
 6006UDC     C666061  18.485   4.268  14.307  0.4926  1.0642  0.4719
 6006UDC     C766062  18.479   4.407  14.235  0.6333 -0.0296  0.4175
 6006UDC     C866063  18.336   4.448  14.224  1.3003  0.2081 -0.8538
 6006UDC     C966064  18.278   4.530  14.338 -1.3010  0.2862 -0.4670
 6006UDC    C1066065  18.363   4.644  14.394  0.2774 -0.0565  0.2412
 6006UDC    C1166066  18.282   4.719  14.502  0.7458  1.1514  1.3493
 6007UDC     C166067   8.645  13.057   3.546  0.9313  0.4296  0.3475
 6007UDC     C266068   8.792  13.085   3.527 -0.2589 -0.6977  0.9361
 6007UDC     C366069   8.873  13.029   3.642  1.0916  0.3069  0.3138
 6007UDC     C466070   8.817  13.069   3.781  0.4415  0.3924  0.4873
 6007UDC     C566071   8.919  13.023   3.884 -0.3628  0.5841 -0.1178
 6007UDC     C666072   8.889  12.884   3.941 -1.3349  0.1887 -0.8502
 6007UDC     C766073   8.997  12.822   4.043  0.5201 -0.4849 -0.7798
 6007UDC     C866074   9.116  12.735   3.986  0.9379  0.5086  0.8497
 6007UDC     C966075   9.148  12.609   4.062 -0.4158 -0.4264 -0.4335
 6007UDC    C1066076   9.030  12.518   4.051  0.1681  1.6947  0.5886
 6007UDC    C1166077   9.019  12.411   4.160  0.2252  0.3187 -0.5021
 6008UDC     C166078  11.662  15.303  16.894  0.1363 -0.2033  1.1879
 6008UDC     C266079  11.816  15.316  16.878  0.6359 -1.1831  0.5188
 6008UDC     C366080  11.893  15.228  16.971 -0.5894 -0.0562 -0.2947
 6008UDC     C466081  11.828  15.124  17.055  0.7179 -0.1471 -0.6726
 6008UDC     C566082  11.935  15.028  17.088 -1.2066  1.2429  0.4475
 6008UDC     C666083  11.896  14.893  17.023 -0.9901 -0.1168 -0.4263
 6008UDC     C766084  11.995  14.775  17.010  0.5721  0.6347  0.1357
 6008UDC     C866085  12.053  14.763  17.147  0.0855  0.4740  0.2523
 6008UDC     C966086  12.069  14.614  17.179 -1.1857 -0.7554 -0.3310
 6008UDC    C1066087  12.182  14.560  17.276  0.4607  0.9744  0.1446
 6008UDC    C1166088  12.234  14.427  17.224  0.2544  0.8919 -0.3404
 6009UDC     C166089   5.671  15.111   0.014 -0.9416  0.0536 -0.3458
 6009UDC     C266090   5.754  14.977   0.019  0.9170 -0.7119  0.3708
 6009UDC     C366091   5.707  14.858   0.099  0.8142 -0.1322 -0.8887
 6009UDC     C466092   5.712  14.715   0.034  0.6833  0.1450 -0.0896
 6009UDC     C566093   5.600  14.703  -0.081 -0.5953  0.2891  0.1071
 6009UDC     C666094   5.584  14.559  -0.133 -0.1328 -0.8054  1.5207
 6009UDC     C766095   5.502  14.457  -0.042 -0.1754 -2.3543  0.7127
 6009UDC     C866096   5.363  14.507  -0.021  0.7767 -0.7917  1.0649
 6009UDC     C966097   5.278  14.548  -0.154 -0.6465  1.3299 -0.5330
 6009UDC    C1066098   5.257  14.436  -0.251  0.2892  0.5320  0.0588
 6009UDC    C1166099   5.154  14.455  -0.372 -0.8213 -0.0449 -0.0343
 6010UDC     C166100  11.624  13.071  17.330  0.8163  0.0895  0.8109
 6010UDC     C266101  11.758  13.106  17.255  0.3995 -0.2035  0.3007
 6010UDC     C366102  11.759  13.264  17.259 -0.9834  0.6542 -0.2930
 6010UDC     C466103  11.641  13.343  17.208 -0.6421 -0.7223 -0.4670
 6010UDC     C566104  11.629  13.485  17.270  0.1080 -1.2423 -0.5093
 6010UDC     C666105  11.715  13.585  17.184  0.7544 -0.1111  0.1485
 6010UDC     C766106  11.664  13.590  17.037 -0.3220 -0.2780  0.0174
 6010UDC     C866107  11.727  13.708  16.947  0.3481  0.8765 -0.4701
 6010UDC     C966108  11.682  13.696  16.799 -0.9265 -0.6287 -1.3863
 6010UDC    C1066109  11.619  13.826  16.750  0.9821 -0.0980  0.2566
 6010UDC    C1166110  11.705  13.954  16.733  1.3088  0.2026 -1.3174
 6011UDC     C166111  18.015  10.065   6.394 -0.0730  0.4200 -0.3570
 6011UDC     C266112  18.104  10.052   6.267 -0.4230  0.4336 -0.7112
 6011UDC     C366113  18.250  10.073   6.285  1.9196  0.0680 -0.6782
 6011UDC     C466114  18.341  10.051   6.162 -1.4718 -0.0221  1.4271
 6011UDC     C566115  18.344  10.179   6.068  0.0102 -0.1838 -1.0359
 6011UDC     C666116  18.360  10.149   5.920  0.2400 -0.9817 -0.3555
 6011UDC     C766117  18.374  10.280   5.833 -0.3689 -0.1925 -0.1191
 6011UDC     C866118  18.410  10.246   5.678  0.8344 -0.1892 -0.6092
 6011UDC     C966119  18.285  10.191   5.614  0.0290  0.0288  0.9991
 6011UDC    C1066120  18.323  10.080   5.506  0.8935  0.1216 -0.2123
 6011UDC    C1166121  18.406   9.956   5.541 -0.5251  0.3915  0.4197
 6012UDC     C166122  16.247   1.388   3.838  0.3173  0.7671 -1.0552
 6012UDC     C266123  16.158   1.283   3.916  0.1275  0.7823  0.0060
 6012UDC     C366124  16.131   1.156   3.831  0.7320 -1.4086  0.2074
 6012UDC     C466125  16.128   1.169   3.676 -0.1901  0.3478  0.1386
 6012UDC     C566126  15.990   1.146   3.613  0.2712  0.8033  0.3176
 6012UDC     C666127  15.982   1.231   3.483  0.3584  0.9005 -0.5357
 6012UDC     C766128  15.846   1.207   3.418 -0.9023 -0.1403 -0.6827
 6012UDC     C866129  15.742   1.318   3.452  0.2917 -0.6405 -0.8575
 6012UDC     C966130  15.593   1.293   3.399 -0.1898  0.4831 -0.8306
 6012UDC    C1066131  15.483   1.392   3.430  0.0526 -0.9631  1.1049
 6012UDC    C1166132  15.521   1.528   3.364  0.6920  0.7689 -0.3844
 6013UDC     C166133  18.057  17.678   0.583 -0.8649 -0.1960 -0.1718
 6013UDC     C266134  18.177  17.603   0.650  0.6983 -1.2894 -0.4390
 6013UDC     C366135  18.204  17.495   0.544  0.3436  0.2402 -0.7375
 6013UDC     C466136  18.304  17.378   0.570  0.1292 -0.8954 -0.0124
 6013UDC     C566137  18.292  17.279   0.454  1.7466  0.0308 -0.2064
 6013UDC     C666138  18.427  17.217   0.433  0.1143 -0.5734  0.2506
 6013UDC     C766139  18.495  17.139   0.546 -0.6140  0.8419 -0.4527
 6013UDC     C866140  18.433  16.999   0.578  0.5015 -0.4128  0.1723
 6013UDC     C966141  18.495  16.905   0.475  0.1213 -0.0414 -0.3783
 6013UDC    C1066142  18.650  16.897   0.473 -0.0665  1.2736  0.1683
 6013UDC    C1166143  18.709  16.772   0.401 -0.4074  0.1374 -0.5764
 6014UDC     C166144   6.106  13.594  12.251  0.0344  0.1915 -0.6916
 6014UDC     C266145   6.167  13.467  12.192  1.1464  1.0650 -0.3894
 6014UDC     C366146   6.087  13.347  12.246  0.2736  0.0159  0.5265
 6014UDC     C466147   5.955  13.335  12.167  1.0490  0.2001  0.2735
 6014UDC     C566148   5.876  13.200  12.157  1.0620  0.5252 -1.2848
 6014UDC     C666149   5.931  13.066  12.136 -1.0165  0.0249 -0.0524
 6014UDC     C766150   5.845  12.955  12.190 -0.1913  0.9625  0.3305
 6014UDC     C866151   5.913  12.818  12.173 -0.0138  0.1889 -0.2311
 6014UDC     C966152   5.824  12.714  12.114  0.2249  1.1854 -0.1074
 6014UDC    C1066153   5.869  12.568  12.083  0.2624 -0.8135  0.6620
 6014UDC    C1166154   5.758  12.506  12.000  0.2824  0.9145 -0.4390
 6015UDC     C166155  12.799  14.808  18.178 -0.4054  0.3627  0.5964
 6015UDC     C266156  12.918  14.768  18.264 -0.1413  1.0345 -0.6137
 6015UDC     C366157  13.044  14.850  18.245  0.6091  0.2081  1.0281
 6015UDC     C466158  13.133  14.822  18.114  0.5170  0.3028 -0.5810
 6015UDC     C566159  13.073  14.864  17.983  0.4394  0.2911  0.1182
 6015UDC     C666160  13.003  14.999  17.993  0.1781 -0.9148 -0.3324
 6015UDC     C766161  12.915  15.043  17.875  0.2998  0.0167 -1.0850
 6015UDC     C866162  12.847  15.185  17.893 -0.0766  0.1200 -0.7761
 6015UDC     C966163  12.744  15.221  18.013 -0.3873 -0.0003  0.4047
 6015UDC    C1066164  12.629  15.315  17.969  0.6524  0.4080 -0.2914
 6015UDC    C1166165  12.485  15.255  18.000 -0.1457  0.0506  0.4293
 6016UDC     C166166  15.776   1.308  16.525  0.0105 -0.9256  0.1385
 6016UDC     C266167  15.867   1.309  16.407  0.9991 -0.1195  0.0993
 6016UDC     C366168  15.876   1.182  16.337  0.3631  0.5423  0.7357
 6016UDC     C466169  16.003   1.199  16.245 -0.9085  0.3057 -0.2423
 6016UDC     C566170  16.090   1.072  16.218 -0.3106 -0.7499  0.7713
 6016UDC     C666171  16.183   1.085  16.089  0.2520  0.5415 -0.1971
 6016UDC     C766172  16.128   1.172  15.970  0.7058  0.9212  1.5354
 6016UDC     C866173  16.083   1.083  15.845  1.2626 -0.8401 -0.7408
 6016UDC     C966174  16.172   0.980  15.773 -0.1116 -1.0122  0.9170
 6016UDC    C1066175  16.092   0.886  15.679 -0.7341  0.6196 -0.6207
 6016UDC    C1166176  16.166   0.791  15.588  0.4354  1.4784  0.2518
 6017UDC     C166177   3.503   5.561   8.483  0.0311  0.4897 -0.0851
 6017UDC     C266178   3.505   5.420   8.410 -0.0020  0.3268 -0.1908
 6017UDC     C366179   3.478   5.467   8.268 -0.0700  0.3898 -0.1905
 6017UDC     C466180   3.498   5.348   8.173  0.1969  1.2580 -0.0137
 6017UDC     C566181   3.374   5.360   8.092  0.0901  0.0914  0.3517
 6017UDC     C666182   3.389   5.305   7.947 -1.2857 -0.2208 -0.3928
 6017UDC     C766183   3.301   5.358   7.841 -0.2044 -0.2174  0.5834
 6017UDC     C866184   3.155   5.300   7.839 -1.7760  0.5842 -0.0090
 6017UDC     C966185   3.104   5.254   7.700  0.3718  0.5180 -0.1052
 6017UDC    C1066186   3.020   5.124   7.699  0.3549 -0.8520  0.4583
 6017UDC    C1166187   3.016   5.044   7.565  0.3069 -0.4602  0.2417
 6018UDC     C166188  11.439  19.653  12.011  0.7415 -0.4399  0.1634
 6018UDC     C266189  11.334  19.642  12.123  0.4539  0.2635 -0.1233
 6018UDC     C366190  11.281  19.501  12.117 -0.4641  0.9687  0.8143
 6018UDC     C466191  11.153  19.480  12.200 -0.6247  0.0368 -0.0960
 6018UDC     C566192  11.101  19.336  12.183  0.0137 -0.5046 -1.0050
 6018UDC     C666193  11.022  19.292  12.311 -0.1687  0.3594  0.9204
 6018UDC     C766194  11.019  19.395  12.427  0.2901 -0.5865  1.3262
 6018UDC     C866195  10.938  19.396  12.553  0.3961  0.9740 -0.1670
 6018UDC     C966196  10.962  19.494  12.667 -0.4135 -0.6111  0.3603
 6018UDC    C1066197  10.944  19.449  12.809  0.9811  0.5508  0.6194
 6018UDC    C1166198  10.826  19.351  12.830  0.8625 -0.3725 -0.2865
 6019UDC     C166199   7.938  18.774  17.428 -0.4696  0.2858 -0.5971
 6019UDC     C266200   7.860  18.635  17.442 -0.3209 -0.2785 -0.0886
 6019UDC     C366201   7.873  18.567  17.580 -0.3990 -1.1262  0.1650
 6019UDC     C466202   7.734  18.563  17.638  0.0612 -0.2839 -0.1798
 6019UDC     C566203   7.654  18.694  17.680 -0.3405  1.4228  0.7410
 6019UDC     C666204   7.549  18.662  17.784  1.6131  0.3252  1.9238
 6019UDC     C766205   7.568  18.575  17.910 -0.7496 -0.0416  0.0693
 6019UDC     C866206   7.443  18.580  18.003 -0.0235  0.7686  0.5359
 6019UDC     C966207   7.418  18.450  18.095 -0.5451 -0.2912  0.4129
 6019UDC    C1066208   7.344  18.492  18.222  0.3881 -0.7487 -0.0770
 6019UDC    C1166209   7.335  18.376  18.323  0.5510 -1.0206 -1.1064
 6020UDC     C166210   0.342  17.821   9.109 -0.6774 -0.2030  0.1624
 6020UDC     C266211   0.421  17.954   9.106  1.1501  1.2044 -0.3713
 6020UDC     C366212   0.467  18.011   8.969  0.1420  0.1539 -2.0715
 6020UDC     C466213   0.575  18.128   8.978 -0.0473 -0.0815 -0.7179
 6020UDC     C566214   0.582  18.200   8.844  0.5459 -0.4174  0.8602
 6020UDC     C666215   0.478  18.316   8.851  0.6324 -0.2054 -0.4237
 6020UDC     C766216   0.521  18.454   8.901  0.3030 -0.3774 -0.0827
 6020UDC     C866217   0.413  18.571   8.877  0.0484 -0.2156  1.0664
 6020UDC     C966218   0.444  18.704   8.944  0.6971  0.1815 -0.2256
 6020UDC    C1066219   0.388  18.831   8.879  0.9914  0.1046 -0.4170
 6020UDC    C1166220   0.238  18.808   8.841  0.7918 -0.0043 -0.3396
 6021UDC     C166221   9.553  12.810   9.538 -0.3424 -0.2974 -0.0591
 6021UDC     C266222   9.563  12.665   9.586 -0.1243 -0.8289  0.8779
 6021UDC     C366223   9.423  12.608   9.596  0.3989  0.3410  0.1618
 6021UDC     C466224   9.399  12.461   9.557  1.3191  0.7706  0.6565
 6021UDC     C566225   9.258  12.401   9.595  0.3889  0.2235 -1.0133
 6021UDC     C666226   9.134  12.431   9.505 -0.0553 -0.9318 -0.0033
 6021UDC     C766227   9.013  12.360   9.574 -0.5848  0.1980 -0.9541
 6021UDC     C866228   9.025  12.205   9.581  0.8861  0.7294 -0.8905
 6021UDC     C966229   8.909  12.140   9.671 -0.4927  1.3280  0.3304
 6021UDC    C1066230   8.780  12.140   9.592 -0.5937  0.1075  0.0853
 6021UDC    C1166231   8.799  12.027   9.486 -0.2297  0.0446 -1.1848
 6022UDC     C166232  10.959   9.973  15.243  1.5219 -0.1304 -0.5528
 6022UDC     C266233  10.844   9.882  15.189  1.0736  1.1128  1.0752
 6022UDC     C366234  10.862   9.811  15.051  0.0765 -0.3653  0.4046
 6022UDC     C466235  10.980   9.719  15.040  0.1276 -1.0742  0.3619
 6022UDC     C566236  11.008   9.634  15.157  0.3161 -0.4399  0.3272
 6022UDC     C666237  11.076   9.499  15.128 -0.3669 -0.4325 -0.3059
 6022UDC     C766238  11.173   9.458  15.241 -0.2535 -0.9264  0.1888
 6022UDC     C866239  11.097   9.438  15.376  0.5885 -0.2936 -0.8645
 6022UDC     C966240  11.168   9.411  15.511  0.0412 -0.4383  0.3148
 6022UDC    C1066241  11.107   9.293  15.574 -0.7781  0.6503 -0.0064
 6022UDC    C1166242  11.186   9.237  15.700 -0.4109 -0.2139  0.0719
 6023UDC     C166243  19.043   1.934  15.725 -0.2896 -0.5159  0.3588
 6023UDC     C266244  19.020   1.985  15.867  0.4181 -0.2527  0.9236
 6023UDC     C366245  18.981   2.135  15.897  0.7727 -0.0161 -0.9603
 6023UDC     C466246  18.932   2.159  16.039  0.1886 -0.5217  0.0689
 6023UDC     C566247  19.017   2.077  16.138 -1.1883 -0.0419 -0.2410
 6023UDC     C666248  18.950   2.065  16.278 -0.4214  0.5710 -0.2568
 6023UDC     C766249  18.978   1.927  16.344  1.5375  0.6838  0.0099
 6023UDC     C866250  19.000   1.950  16.502 -0.3308  0.6003 -0.6909
 6023UDC     C966251  18.919   2.025  16.612 -0.8987 -0.1052  0.1484
 6023UDC    C1066252  18.926   2.178  16.617  0.1519 -0.0220  0.5580
 6023UDC    C1166253  19.060   2.238  16.657 -0.2758 -0.3161 -0.9119
 6024UDC     C166254   5.288  13.539  13.093 -0.8516 -0.1314 -0.0627
 6024UDC     C266255   5.181  13.444  13.046 -0.3331  1.0666 -0.3711
 6024UDC     C366256   5.224  13.308  12.996  0.7220 -0.5238  0.4610
 6024UDC     C466257   5.126  13.198  13.020 -0.3577 -0.0816 -0.5873
 6024UDC     C566258   5.142  13.084  12.914 -0.7766 -0.1637  0.9309
 6024UDC     C666259   5.280  13.015  12.901  0.5968  1.6773  0.7592
 6024UDC     C766260   5.291  12.864  12.848  0.4672  0.1173  0.0835
 6024UDC     C866261   5.432  12.814  12.863 -0.2591  0.0037 -0.1689
 6024UDC     C966262   5.468  12.720  12.744  0.5045  0.2640  0.5471
 6024UDC    C1066263   5.381  12.588  12.728  0.2970  0.1499 -0.5759
 6024UDC    C1166264   5.406  12.468  12.825 -0.0060  0.7014  0.9314
 6025UDC     C166265  12.242  17.139  14.419 -0.1900 -0.4409  0.7775
 6025UDC     C266266  12.131  17.057  14.477 -0.3921 -0.4388 -0.0721
 6025UDC     C366267  12.008  17.136  14.526 -0.4001  0.3611 -0.6339
 6025UDC     C466268  11.899  17.046  14.588  0.3892  1.2799  0.7142
 6025UDC     C566269  11.826  16.975  14.469  0.6536  0.1351  0.6237
 6025UDC     C666270  11.688  16.909  14.496 -0.7337 -0.8189  1.1333
 6025UDC     C766271  11.593  16.976  14.396 -0.5014 -0.1601  0.0996
 6025UDC     C866272  11.452  16.915  14.359 -0.1322 -0.1692  0.1378
 6025UDC     C966273  11.398  16.998  14.241 -0.2300  0.3835  1.2228
 6025UDC    C1066274  11.483  16.986  14.115  0.7394  0.2391  0.5018
 6025UDC    C1166275  11.438  17.084  14.005 -0.0867  0.7465 -0.5611
 6026UDC     C166276  11.168   1.874  13.439  0.4342  0.2687  0.3899
 6026UDC     C266277  11.052   1.775  13.454  0.2530 -0.1493  0.6538
 6026UDC     C366278  11.115   1.632  13.453 -0.0936 -0.0929 -0.3883
 6026UDC     C466279  11.022   1.537  13.533  0.1891  0.7557  0.0134
 6026UDC     C566280  11.089   1.413  13.594 -0.0805 -0.0497 -0.1960
 6026UDC     C666281  11.074   1.392  13.745 -0.0822 -0.4045  0.5605
 6026UDC     C766282  10.924   1.397  13.802 -0.8865 -0.1622  0.6044
 6026UDC     C866283  10.905   1.392  13.958  0.0036  1.4418 -0.0952
 6026UDC     C966284  10.992   1.279  14.012  0.2810  0.3520 -0.3749
 6026UDC    C1066285  11.020   1.273  14.166 -0.5360 -0.5224 -0.1296
 6026UDC    C1166286  10.903   1.226  14.255 -0.9433  0.5793  0.7595
 6027UDC     C166287  18.329  17.572   4.547 -0.4992  0.9380  0.7512
 6027UDC     C266288  18.475  17.611   4.519 -0.6814  0.5104 -0.4668
 6027UDC     C366289  18.557  17.519   4.426  0.6854 -0.6291 -0.0217
 6027UDC     C466290  18.690  17.569   4.377 -1.2930  0.3739 -0.8671
 6027UDC     C566291  18.675  17.698   4.293  0.1322  0.1785  0.8611
 6027UDC     C666292  18.696  17.672   4.143  1.5856  1.0525 -0.0669
 6027UDC     C766293  18.645  17.778   4.048 -0.0780  0.3285  0.8414
 6027UDC     C866294  18.708  17.913   4.086 -0.8692 -0.4987  0.1641
 6027UDC     C966295  18.704  17.996   3.959 -0.0789 -1.4965  0.1480
 6027UDC    C1066296  18.750  18.147   3.960  0.1432  0.4060 -0.0854
 6027UDC    C1166297  18.737  18.194   3.816  1.0154 -1.0595  0.3114
 6028UDC     C166298   9.978   8.582   5.329  0.3868 -0.5795  0.1922
 6028UDC     C266299   9.841   8.509   5.289  0.0476  1.5025  0.7696
 6028UDC     C366300   9.775   8.433   5.403 -1.0142 -0.9898  0.7420
 6028UDC     C466301   9.626   8.481   5.423 -0.8251  0.2581 -0.5821
 6028UDC     C566302   9.580   8.629   5.434 -0.4796  0.0596  0.8167
 6028UDC     C666303   9.534   8.653   5.573  0.2502  0.6785  0.0120
 6028UDC     C766304   9.396   8.586   5.594 -0.4062 -0.1676  0.6280
 6028UDC     C866305   9.345   8.602   5.733  1.0008  0.1584  0.4034
 6028UDC     C966306   9.188   8.611   5.736  0.2375 -0.1340  0.4281
 6028UDC    C1066307   9.131   8.542   5.856 -0.0284 -0.0462 -1.3090
 6028UDC    C1166308   9.126   8.390   5.854  1.0163  1.2526 -0.6269
 6029UDC     C166309   2.074   6.043  15.973 -0.5245  0.0004 -0.4502
 6029UDC     C266310   2.181   6.130  15.911  0.8819  0.0435 -0.1950
 6029UDC     C366311   2.117   6.225  15.807 -0.2886  0.3076 -0.3644
 6029UDC     C466312   2.002   6.309  15.840  0.2085  0.0697 -0.1829
 6029UDC     C566313   1.989   6.431  15.754  0.4784 -0.2821  1.2236
 6029UDC     C666314   1.894   6.556  15.793 -0.9181 -0.0352  0.3427
 6029UDC     C766315   1.885   6.608  15.938  0.3167 -0.6703  0.1510
 6029UDC     C866316   1.762   6.702  15.960 -1.1810  0.1720  1.1907
 6029UDC     C966317   1.741   6.804  15.847 -0.5695 -0.2912 -0.1870
 6029UDC    C1066318   1.599   6.803  15.782 -0.3299  0.2594 -0.2365
 6029UDC    C1166319   1.495   6.716  15.855 -1.0644 -0.1818 -0.5602
 6030UDC     C166320   0.370   0.065  18.684  0.3681 -0.0112  0.1028
 6030UDC     C266321   0.522   0.072  18.673 -0.6480  0.5464 -0.0649
 6030UDC     C366322   0.573   0.187  18.770  0.4391  0.4303  1.0433
 6030UDC     C466323   0.590   0.136  18.918  0.5244 -0.8018 -0.8404
 6030UDC     C566324   0.618   0.247  19.020  0.2221  0.4711 -0.1324
 6030UDC     C666325   0.643   0.196  19.163 -0.0670  0.0069  0.5023
 6030UDC     C766326   0.795   0.154  19.153  0.2795  0.0795 -0.1638
 6030UDC     C866327   0.856   0.275  19.070 -1.1655 -0.3525  1.1817
 6030UDC     C966328   1.016   0.268  19.058  0.2523 -0.0487 -0.0635
 6030UDC    C1066329   1.086   0.197  19.180 -1.0180 -0.6854  0.0804
 6030UDC    C1166330   1.233   0.166  19.156 -0.1639  0.6258  0.7044
 6031UDC     C166331   4.149  14.242   8.562  0.2104  0.9425  0.0367
 6031UDC     C266332   4.070  14.373   8.528 -0.4904  0.3809  0.0834
 6031UDC     C366333   3.940  14.386   8.608 -0.1978  0.4936  0.4393
 6031UDC     C466334   3.954  14.381   8.762  0.2758 -0.7234  0.2320
 6031UDC     C566335   3.815  14.420   8.807  0.2771  0.4158 -0.6677
 6031UDC     C666336   3.817  14.573   8.807 -0.1510  0.4184 -0.5932
 6031UDC     C766337   3.676  14.638   8.834  0.6464 -0.9134  0.3559
 6031UDC     C866338   3.556  14.557   8.879 -1.1934 -0.1797 -0.2616
 6031UDC     C966339   3.423  14.633   8.898 -0.2339 -0.0774 -0.1483
 6031UDC    C1066340   3.311  14.538   8.926 -0.8242 -0.6181 -0.0888
 6031UDC    C1166341   3.240  14.457   8.809  0.4970  0.4875 -0.7795
 6032UDC     C166342   0.025   8.573  18.591 -0.8084 -0.5007  0.6510
 6032UDC     C266343  -0.065   8.455  18.554 -0.3398  0.7762  0.4805
 6032UDC     C366344  -0.105   8.469  18.410 -0.1679  0.0966  0.4057
 6032UDC     C466345  -0.168   8.601  18.380  0.3750  0.2453 -0.5930
 6032UDC     C566346  -0.122   8.681  18.256 -0.4751  0.0450  0.0440
 6032UDC     C666347   0.034   8.707  18.241 -0.0068  1.1006 -0.1045
 6032UDC     C766348   0.082   8.756  18.105  0.7663  0.4223  0.0570
 6032UDC     C866349   0.234   8.763  18.088  0.0867 -0.4675  0.6572
 6032UDC     C966350   0.279   8.840  17.960  0.0769  0.7820 -1.3866
 6032UDC    C1066351   0.401   8.797  17.893  0.7775  0.7127  0.1739
 6032UDC    C1166352   0.421   8.877  17.767 -0.0439 -0.1040 -0.3601
 6033UDC     C166353   8.288  10.272  13.267  0.0311  0.1840 -0.6513
 6033UDC     C266354   8.339  10.340  13.140  0.4426 -0.1940 -0.2476
 6033UDC     C366355   8.374  10.484  13.171  0.1154 -1.5220 -0.4987
 6033UDC     C466356   8.337  10.586  13.058  1.3838  0.4403  0.3461
 6033UDC     C566357   8.373  10.739  13.073  0.2791 -0.3720  0.3054
 6033UDC     C666358   8.324  10.809  12.949 -0.1318  0.0756  0.4478
 6033UDC     C766359   8.424  10.781  12.837 -0.2477 -0.4347 -2.2117
 6033UDC     C866360   8.538  10.893  12.837  0.2171  0.6422  0.1777
 6033UDC     C966361   8.550  10.965  12.703 -0.8763  0.5166 -0.6154
 6033UDC    C1066362   8.451  10.911  12.598  0.3355  0.3387 -1.3838
 6033UDC    C1166363   8.509  10.948  12.462 -0.4114  0.0112 -0.4879
 6034UDC     C166364   3.637  15.783  12.671 -1.2874  0.0380  0.6439
 6034UDC     C266365   3.697  15.761  12.808  0.8536  0.0279 -0.5368
 6034UDC     C366366   3.659  15.869  12.919 -1.3472  0.3372  0.0190
 6034UDC     C466367   3.690  15.813  13.057 -0.2776 -0.9900  0.0262
 6034UDC     C566368   3.708  15.935  13.154 -0.1522 -0.2289  0.1082
 6034UDC     C666369   3.840  16.008  13.125 -0.0226  0.5476 -1.2583
 6034UDC     C766370   3.958  15.899  13.139 -0.9708 -0.5481  0.5800
 6034UDC     C866371   4.110  15.936  13.125 -0.2576  0.2908 -1.1037
 6034UDC     C966372   4.201  15.842  13.201  0.2777 -0.7458  0.4398
 6034UDC    C1066373   4.175  15.691  13.180  0.6729 -0.6211 -0.1006
 6034UDC    C1166374   4.196  15.606  13.308  0.0226  0.8818  0.1314
 6035UDC     C166375   1.469   2.101   3.634 -0.3574 -0.1152 -0.5066
 6035UDC     C266376   1.376   2.036   3.538 -0.1643  0.1954  0.4887
 6035UDC     C366377   1.224   2.029   3.575 -0.3152  0.0089  0.8985
 6035UDC     C466378   1.197   2.003   3.729 -0.0558 -0.4140  0.0029
 6035UDC     C566379   1.048   1.948   3.757 -0.5618 -0.2383 -0.9089
 6035UDC     C666380   1.045   1.833   3.858 -0.9128  0.8167 -0.2559
 6035UDC     C766381   1.028   1.688   3.806 -1.0898 -0.3309 -0.1008
 6035UDC     C866382   0.903   1.711   3.722  0.8550  0.0574  0.1829
 6035UDC     C966383   0.860   1.560   3.697  0.7673  0.0014  0.6604
 6035UDC    C1066384   0.770   1.548   3.568 -0.2966  0.1611 -0.1436
 6035UDC    C1166385   0.682   1.677   3.538 -0.4328 -0.6721 -1.0343
 6036UDC     C166386  13.050   8.143   0.375  0.1894 -0.5854 -0.0292
 6036UDC     C266387  13.028   8.111   0.223 -0.6455  0.3741  0.1332
 6036UDC     C366388  13.123   7.998   0.176  0.8196 -0.2278 -0.9389
 6036UDC     C466389  13.249   8.065   0.117  0.8814 -0.0392  0.5856
 6036UDC     C566390  13.230   8.103  -0.027  0.4761 -0.0067 -0.8512
 6036UDC     C666391  13.239   7.990  -0.140  0.0773 -0.3232 -0.1305
 6036UDC     C766392  13.176   7.854  -0.144  0.2536 -0.0283 -0.5652
 6036UDC     C866393  13.203   7.769  -0.274 -0.5523 -0.3249  0.4683
 6036UDC     C966394  13.354   7.723  -0.278 -0.1520  0.7217  0.2794
 6036UDC    C1066395  13.398   7.613  -0.170  0.3479 -0.9139 -0.2624
 6036UDC    C1166396  13.531   7.547  -0.198  1.1245 -0.2628 -0.3325
 6037UDC     C166397  12.460  13.888   6.780 -0.0327 -0.7442 -0.1477
 6037UDC     C266398  12.495  13.904   6.625 -0.4203 -0.1224  0.5585
 6037UDC     C366399  12.540  13.768   6.565 -0.5142  0.2618  0.8122
 6037UDC     C466400  12.600  13.798   6.430  0.5764  0.5184 -0.0040
 6037UDC     C566401  12.557  13.698   6.331  1.3860  0.2291  0.0909
 6037UDC     C666402  12.580  13.738   6.182 -0.1908 -0.3692  0.2612
 6037UDC     C766403  12.548  13.640   6.070 -0.4079  0.2002 -0.3948
 6037UDC     C866404  12.594  13.720   5.949 -0.0942 -0.1843  1.0995
 6037UDC     C966405  12.581  13.656   5.809  0.0280  0.2265  0.9291
 6037UDC    C1066406  12.648  13.514   5.784  0.1607 -0.9112 -0.2977
 6037UDC    C1166407  12.615  13.482   5.637  0.6367 -0.0113  0.6948
 6038UDC     C166408   7.278  11.522  11.803 -0.1166 -0.6743  0.0441
 6038UDC     C266409   7.239  11.666  11.840  0.0041  0.3769 -0.4933
 6038UDC     C366410   7.127  11.724  11.759  0.1745  0.6427 -0.2682
 6038UDC     C466411   6.996  11.644  11.759 -0.1806  0.0664  0.3721
 6038UDC     C566412   6.866  11.675  11.674  0.1548 -0.1955 -0.1445
 6038UDC     C666413   6.737  11.642  11.737  0.2532  0.3889  0.0671
 6038UDC     C766414   6.690  11.498  11.757  0.1822 -0.8711 -0.4376
 6038UDC     C866415   6.574  11.502  11.866  0.0072 -0.4324  0.0567
 6038UDC     C966416   6.501  11.363  11.879 -0.2673 -1.2675 -0.7316
 6038UDC    C1066417   6.380  11.368  11.973  0.9289 -0.1083 -1.4222
 6038UDC    C1166418   6.413  11.341  12.124 -0.1751  1.0969  0.2797
 6039UDC     C166419  10.452  12.455  19.266  0.0659  0.5866 -0.2028
 6039UDC     C266420  10.322  12.381  19.307 -0.1111 -0.3819 -0.4096
 6039UDC     C366421  10.193  12.435  19.237 -0.6965  0.1422 -1.4464
 6039UDC     C466422  10.220  12.571  19.174 -0.6684 -0.2847  0.7860
 6039UDC     C566423  10.117  12.619  19.071  0.4604 -0.1021 -0.0801
 6039UDC     C666424   9.999  12.705  19.126  0.8629  0.2847  0.6658
 6039UDC     C766425   9.878  12.632  19.191 -0.1553 -0.4628  0.7509
 6039UDC     C866426   9.768  12.740  19.224  0.6315  0.8592 -0.4510
 6039UDC     C966427   9.643  12.712  19.305  0.2297  0.7977  2.1096
 6039UDC    C1066428   9.522  12.779  19.239  0.7461  0.2207 -0.2446
 6039UDC    C1166429   9.481  12.719  19.106 -0.4710 -0.7976  0.1529
 6040UDC     C166430  19.051   5.307  19.955 -0.1541 -0.1191 -0.3510
 6040UDC     C266431  19.127   5.311  19.822  0.6358  0.3971  0.9685
 6040UDC     C366432  19.059   5.371  19.700  0.4290  0.4676 -0.4440
 6040UDC     C466433  19.098   5.305  19.562  1.1679 -0.2405  0.2285
 6040UDC     C566434  19.249   5.327  19.548 -0.9919 -0.0784 -0.4662
 6040UDC     C666435  19.287   5.469  19.495 -0.1896  0.4049 -0.1931
 6040UDC     C766436  19.300   5.521  19.350 -0.0771  0.3793  0.5246
 6040UDC     C866437  19.358   5.665  19.321  0.9746 -0.2421  1.7725
 6040UDC     C966438  19.318   5.723  19.179  0.6077 -0.3457  2.0244
 6040UDC    C1066439  19.406   5.808  19.099 -0.6318 -0.7174  0.7021
 6040UDC    C1166440  19.445   5.935  19.175  0.5465 -0.4785 -0.2651
 6041UDC     C166441  12.031  17.655   8.173  0.2254 -0.4955  0.2400
 6041UDC     C266442  12.098  17.738   8.291  0.2746 -0.6348  1.1796
 6041UDC     C366443  12.251  17.738   8.272  0.8120 -0.1187 -0.6969
 6041UDC     C466444  12.281  17.831   8.152 -0.4802  0.2481  0.1830
 6041UDC     C566445  12.291  17.977   8.195  0.3749  0.3327 -0.4040
 6041UDC     C666446  12.223  18.074   8.094 -0.2368  0.3517  0.3856
 6041UDC     C766447  12.224  18.209   8.161  0.4160 -0.5218  0.2193
 6041UDC     C866448  12.176  18.325   8.068  0.7995  0.2088 -0.3262
 6041UDC     C966449  12.201  18.463   8.122  0.9792 -1.7442 -0.3546
 6041UDC    C1066450  12.113  18.573   8.061  0.1897 -0.5574  0.0221
 6041UDC    C1166451  12.010  18.503   7.977  1.0786  0.4742  0.5488
 6042UDC     C166452  15.501   8.658  11.527 -0.0886 -0.4142  0.2513
 6042UDC     C266453  15.461   8.560  11.627  0.8024  0.0853 -0.9748
 6042UDC     C366454  15.510   8.420  11.606  0.2723 -0.2130 -0.1282
 6042UDC     C466455  15.663   8.445  11.593  0.2215 -0.3133  0.0183
 6042UDC     C566456  15.747   8.321  11.608 -0.1192  0.0885  0.6164
 6042UDC     C666457  15.734   8.222  11.487  1.1356  1.4937  0.9613
 6042UDC     C766458  15.852   8.122  11.455  0.4062 -0.7578  0.0473
 6042UDC     C866459  15.824   8.012  11.344  0.2313  0.1100 -0.0906
 6042UDC     C966460  15.789   8.058  11.201 -1.0635  0.5767 -0.5969
 6042UDC    C1066461  15.816   7.930  11.125 -0.2860 -0.1916  0.0116
 6042UDC    C1166462  15.802   7.935  10.972  0.2496  0.0634  0.5837
 6043UDC     C166463   8.924  17.542  11.610  0.1741  0.0157 -0.1998
 6043UDC     C266464   8.945  17.517  11.766  0.3426 -0.6814 -0.5561
 6043UDC     C366465   8.941  17.372  11.816 -0.0248 -0.1465  0.1785
 6043UDC     C466466   8.967  17.345  11.962 -0.3188 -0.3054  0.4392
 6043UDC     C566467   8.970  17.201  11.995  1.0539  0.4538  0.3525
 6043UDC     C666468   8.854  17.119  11.933 -0.1900  0.5320 -0.1338
 6043UDC     C766469   8.716  17.184  11.976 -0.4002 -0.7626 -1.3401
 6043UDC     C866470   8.600  17.118  11.914 -0.2644  0.4750 -0.4485
 6043UDC     C966471   8.460  17.186  11.923  0.9387 -0.2936  0.8733
 6043UDC    C1066472   8.346  17.087  11.884  0.4516  0.7870  0.4777
 6043UDC    C1166473   8.203  17.147  11.892 -0.6632  0.4127 -0.3407
 6044UDC     C166474  15.692  19.092   9.819  0.0153  0.5610  0.0466
 6044UDC     C266475  15.577  19.019   9.748  0.0158 -0.0306  0.1879
 6044UDC     C366476  15.445  19.104   9.761 -0.4139 -0.1750 -0.0742
 6044UDC     C466477  15.317  19.039   9.701  0.2226  0.4083 -0.3569
 6044UDC     C566478  15.219  19.151   9.686  0.0533 -0.0061 -0.9164
 6044UDC     C666479  15.175  19.239   9.802  0.4311 -0.4238 -0.0898
 6044UDC     C766480  15.107  19.146   9.902  0.0785 -0.4677 -0.3713
 6044UDC     C866481  15.045  19.254   9.995 -0.8322 -0.5730 -0.1626
 6044UDC     C966482  14.942  19.203  10.101  0.2819  0.2323 -0.2565
 6044UDC    C1066483  14.854  19.308  10.175  0.4978 -0.1312  0.7857
 6044UDC    C1166484  14.721  19.244  10.207 -0.9147  0.6818 -0.3958
 6045UDC     C166485  15.493  11.429  11.225 -0.9913  0.3498 -1.5468
 6045UDC     C266486  15.447  11.467  11.086  0.5942  0.3383 -0.5537
 6045UDC     C366487  15.558  11.524  10.990  0.0183  0.6060 -0.3786
 6045UDC     C466488  15.483  11.583  10.872 -0.3512  0.7773 -0.9741
 6045UDC     C566489  15.577  11.664  10.790  0.3279  0.3177  0.3345
 6045UDC     C666490  15.593  11.807  10.853  0.8871  0.0822 -0.5043
 6045UDC     C766491  15.472  11.883  10.914  0.3867 -1.1226  0.4386
 6045UDC     C866492  15.495  12.041  10.920  1.1125  0.6559 -0.8154
 6045UDC     C966493  15.428  12.104  10.800 -0.5050 -0.0073 -0.8045
 6045UDC    C1066494  15.341  12.003  10.727  0.0979 -0.2718  0.5194
 6045UDC    C1166495  15.279  12.032  10.580  0.1992  0.4034 -0.2811
 6046UDC     C166496  16.274   1.442   2.908  0.8832  0.5007 -0.1164
 6046UDC     C266497  16.121   1.421   2.861 -0.5643 -0.8355 -0.2197
 6046UDC     C366498  15.995   1.473   2.938  0.1097  1.3362  0.9887
 6046UDC     C466499  15.857   1.469   2.863  1.2133 -0.4943 -0.3501
 6046UDC     C566500  15.793   1.328   2.841 -0.2932 -0.2549 -0.0432
 6046UDC     C666501  15.660   1.345   2.781  1.0795  0.4568  0.0932
 6046UDC     C766502  15.596   1.202   2.745  1.2215  0.4369  1.2557
 6046UDC     C866503  15.642   1.135   2.616  0.7893 -0.7918  0.4999
 6046UDC     C966504  15.546   1.034   2.569 -0.4610  0.4580  0.0187
 6046UDC    C1066505  15.545   1.001   2.419 -0.0015 -0.1629  1.0898
 6046UDC    C1166506  15.443   0.886   2.387 -0.4952  0.0843 -0.1403
 6047UDC     C166507  18.260   8.502   2.758 -1.2288 -1.1153  0.5873
 6047UDC     C266508  18.165   8.382   2.730 -1.2745  0.1835  0.4285
 6047UDC     C366509  18.014   8.416   2.684  0.5297  0.0583 -1.2111
 6047UDC     C466510  18.027   8.444   2.534 -0.4556 -0.6980 -0.3347
 6047UDC     C566511  17.901   8.429   2.453 -0.8490  0.2407 -0.4450
 6047UDC     C666512  17.903   8.516   2.325  0.1747  0.2932  0.2579
 6047UDC     C766513  17.848   8.657   2.365 -0.5234  0.6294 -0.1565
 6047UDC     C866514  17.718   8.676   2.301 -0.2787 -0.0930  0.1606
 6047UDC     C966515  17.625   8.794   2.343 -0.0492 -0.0527 -0.4615
 6047UDC    C1066516  17.490   8.818   2.269 -0.4452  0.0813 -0.4120
 6047UDC    C1166517  17.502   8.916   2.151 -0.2939 -0.3000  0.0928
 6048UDC     C166518   2.434   9.550   7.710  0.5366  0.6547 -0.4079
 6048UDC     C266519   2.408   9.424   7.792  1.7571  0.5122 -1.7533
 6048UDC     C366520   2.262   9.407   7.830 -0.3411  0.1028  0.0279
 6048UDC     C466521   2.246   9.307   7.940 -0.7351  0.8150  0.6851
 6048UDC     C566522   2.327   9.330   8.066  0.2339 -0.0788  0.3227
 6048UDC     C666523   2.320   9.231   8.183  0.5474 -0.8560  0.5525
 6048UDC     C766524   2.374   9.265   8.321 -0.2128 -0.2764  0.3366
 6048UDC     C866525   2.525   9.306   8.347 -0.1043  0.6358  0.5153
 6048UDC     C966526   2.549   9.329   8.500  0.1812  0.4439 -0.2290
 6048UDC    C1066527   2.687   9.287   8.556  1.3220 -1.3217  0.9939
 6048UDC    C1166528   2.695   9.309   8.707  0.3402 -0.7161 -0.2578
 6049UDC     C166529   1.725   6.997  10.840 -0.4508  0.5377  0.0659
 6049UDC     C266530   1.713   6.998  10.684 -0.2689 -0.6608 -0.2372
 6049UDC     C366531   1.566   7.018  10.637 -0.0067  0.5119 -0.3753
 6049UDC     C466532   1.460   6.917  10.671 -0.3170  0.0155  0.2448
 6049UDC     C566533   1.324   6.951  10.612 -0.5851 -0.6550  1.2878
 6049UDC     C666534   1.219   6.837  10.614  0.4642  0.1312 -0.4294
 6049UDC     C766535   1.287   6.702  10.625  0.8710  0.1596 -1.1212
 6049UDC     C866536   1.210   6.597  10.701  0.5558 -0.0913  0.3041
 6049UDC     C966537   1.264   6.448  10.710  0.3209 -0.6771 -0.1098
 6049UDC    C1066538   1.145   6.349  10.739 -1.5112  1.2027  1.1228
 6049UDC    C1166539   1.041   6.321  10.634  0.9664  0.0742  0.4557
 6050UDC     C166540   9.871  16.322  12.017 -0.3935 -0.1357 -0.3079
 6050UDC     C266541   9.881  16.291  11.870  0.0505  0.4195  0.6076
 6050UDC     C366542   9.852  16.142  11.873 -0.4871 -1.0645  0.2393
 6050UDC     C466543   9.820  16.080  11.736 -0.2407 -0.1489  0.4538
 6050UDC     C566544   9.800  15.931  11.755 -0.6073  0.4835  0.3019
 6050UDC     C666545   9.929  15.877  11.824  0.6086 -0.9861 -0.3635
 6050UDC     C766546  10.030  15.836  11.727 -0.5944  0.5502 -0.6118
 6050UDC     C866547  10.128  15.928  11.641 -0.6813  0.6864  0.2746
 6050UDC     C966548  10.215  15.873  11.522  0.1484 -0.2905  0.3011
 6050UDC    C1066549  10.302  15.982  11.459 -0.5951 -0.6180 -0.5800
 6050UDC    C1166550  10.367  15.917  11.329  0.0168 -0.8981 -0.4127
 6051UDC     C166551  18.258   4.232   8.530  0.4088 -1.0270 -0.2194
 6051UDC     C266552  18.144   4.132   8.544  0.4236 -0.0077 -0.9559
 6051UDC     C366553  18.042   4.146   8.665  0.6825 -0.9002 -0.0766
 6051UDC     C466554  18.096   4.077   8.792  0.6514  0.8745  0.4819
 6051UDC     C566555  17.994   4.062   8.907 -0.5383  0.3458  0.2450
 6051UDC     C666556  18.052   3.948   8.987  0.2329 -0.1410  0.5263
 6051UDC     C766557  17.951   3.891   9.091  0.3415  0.2873  0.6720
 6051UDC     C866558  17.890   3.992   9.183 -0.2629 -0.2312  0.2551
 6051UDC     C966559  17.761   3.978   9.274  0.8509 -0.5396  0.3059
 6051UDC    C1066560  17.657   4.072   9.216 -0.1000 -0.3874  0.1117
 6051UDC    C1166561  17.526   4.085   9.297  0.4047  0.0252 -0.5279
 6052UDC     C166562   8.615   6.948  10.651 -0.2757 -0.0791  0.1090
 6052UDC     C266563   8.581   6.903  10.512 -0.0656 -0.1537  0.2429
 6052UDC     C366564   8.598   6.751  10.521  0.1398  0.0630  0.0871
 6052UDC     C466565   8.630   6.695  10.382  0.5652  1.4550  1.2753
 6052UDC     C566566   8.540   6.764  10.275  0.0488 -0.7017 -0.5315
 6052UDC     C666567   8.576   6.683  10.150  0.2773 -0.8512  0.0007
 6052UDC     C766568   8.502   6.736  10.023 -0.4133 -0.5830  0.9060
 6052UDC     C866569   8.559   6.654   9.899 -0.6691 -0.6578 -0.7364
 6052UDC     C966570   8.512   6.698   9.763 -0.1858 -0.1048 -0.0857
 6052UDC    C1066571   8.498   6.846   9.749  0.3332 -0.5766 -0.0753
 6052UDC    C1166572   8.477   6.877   9.602 -0.0845 -1.9180 -0.0028
 6053UDC     C166573  19.304   7.269   9.174 -0.2407  0.6414  0.0406
 6053UDC     C266574  19.302   7.221   9.325  0.2116 -0.2406  0.1300
 6053UDC     C366575  19.166   7.213   9.390  1.1945  0.6374  0.7000
 6053UDC     C466576  19.150   7.244   9.541  0.5331 -1.1345  0.2596
 6053UDC     C566577  19.143   7.126   9.637  0.0291 -0.4089  0.8330
 6053UDC     C666578  19.218   7.167   9.767  0.8694 -0.1677 -0.1435
 6053UDC     C766579  19.348   7.092   9.801 -0.7422 -0.0339 -0.3380
 6053UDC     C866580  19.344   6.940   9.811 -0.9027 -0.6402 -1.1033
 6053UDC     C966581  19.328   6.890   9.962 -0.1741  0.6630 -0.8706
 6053UDC    C1066582  19.354   6.740   9.968  0.3350 -0.3287 -0.2976
 6053UDC    C1166583  19.505   6.722  10.006 -0.6376  1.3484  1.6103
 6054UDC     C166584  17.187   0.839  13.544  0.5729  0.0016 -2.0132
 6054UDC     C266585  17.039   0.818  13.509 -0.3594 -0.1025  0.2833
 6054UDC     C366586  16.994   0.740  13.636 -0.1509  0.0669  0.0667
 6054UDC     C466587  16.838   0.733  13.639  0.0721 -0.7745 -0.7355
 6054UDC     C566588  16.760   0.614  13.586 -0.9164 -0.2399  0.6557
 6054UDC     C666589  16.612   0.662  13.588 -0.1552 -0.2453 -0.5534
 6054UDC     C766590  16.550   0.675  13.730 -0.6395  0.3543  1.1853
 6054UDC     C866591  16.406   0.719  13.729  0.6901  1.4918  0.7266
 6054UDC     C966592  16.343   0.723  13.868  0.8011 -0.9585 -1.3543
 6054UDC    C1066593  16.317   0.590  13.941  0.9401 -1.0176 -0.2429
 6054UDC    C1166594  16.255   0.590  14.089  0.3219 -0.3241 -0.5260
 6055UDC     C166595  16.168  18.703  11.969 -0.0446 -0.5366 -0.8621
 6055UDC     C266596  16.134  18.804  11.855  0.6910 -0.6275 -0.9850
 6055UDC     C366597  16.058  18.919  11.920 -0.8375  0.6040 -1.8511
 6055UDC     C466598  16.004  19.032  11.827 -0.2701  0.2592  0.6760
 6055UDC     C566599  16.084  19.164  11.824  0.5736  0.2694  0.6344
 6055UDC     C666600  16.025  19.306  11.827  0.0550  0.4418  1.4169
 6055UDC     C766601  15.990  19.330  11.971  0.8775  0.1902 -0.6619
 6055UDC     C866602  15.924  19.466  11.997  0.7660 -0.7486  1.4000
 6055UDC     C966603  15.840  19.516  11.872 -0.6878  0.2709  0.4331
 6055UDC    C1066604  15.849  19.678  11.887 -0.2965  0.6411 -0.7039
 6055UDC    C1166605  15.752  19.767  11.823  0.9167  0.4373  0.5907
 6056UDC     C166606   4.300   6.329   0.887  0.8189 -0.0091 -0.3841
 6056UDC     C266607   4.321   6.379   0.746 -0.8751  0.6792 -0.2249
 6056UDC     C366608   4.438   6.321   0.656  0.2284 -1.3114 -0.4923
 6056UDC     C466609   4.417   6.320   0.503  0.5063 -0.4129 -0.4641
 6056UDC     C566610   4.544   6.280   0.425 -0.2775  0.0155  1.5409
 6056UDC     C666611   4.522   6.277   0.270  0.0211  0.4881  0.3405
 6056UDC     C766612   4.438   6.175   0.207 -1.1156  0.4199  0.0004
 6056UDC     C866613   4.438   6.154   0.053 -0.8370  0.6586 -0.1984
 6056UDC     C966614   4.484   6.005   0.006  0.6319 -0.7939 -0.0172
 6056UDC    C1066615   4.425   5.973  -0.130 -0.2739  0.5155 -0.2043
 6056UDC    C1166616   4.459   5.829  -0.182 -1.5924 -0.4450 -0.7505
 6057UDC     C166617  14.198   8.052  14.312  0.0824  0.3958  0.0173
 6057UDC     C266618  14.293   7.981  14.415  0.9725 -0.7222  0.1328
 6057UDC     C366619  14.304   8.074  14.538  0.0229  0.6040 -0.3511
 6057UDC     C466620  14.439   8.147  14.546  0.4687 -0.1888 -0.1114
 6057UDC     C566621  14.566   8.064  14.569  0.7554  0.7227 -0.1377
 6057UDC     C666622  14.688   8.133  14.627 -0.5112 -0.7171  0.2250
 6057UDC     C766623  14.660   8.172  14.779 -0.7107  0.3655  0.3737
 6057UDC     C866624  14.771   8.155  14.886  0.8499  0.3434  0.1961
 6057UDC     C966625  14.904   8.234  14.870  0.1763  1.4831 -0.4376
 6057UDC    C1066626  15.014   8.207  14.970  0.2350  0.5271 -0.4060
 6057UDC    C1166627  15.065   8.061  14.988  0.3082 -0.7574 -0.2357
 6058UDC     C166628   3.044  14.334   6.648  0.6409  0.2245  0.9940
 6058UDC     C266629   3.185  14.273   6.608 -0.3335 -0.3927  1.4831
 6058UDC     C366630   3.314  14.325   6.663 -0.5633  0.8117  0.4722
 6058UDC     C466631   3.445  14.260   6.608  0.6826  0.0880 -0.4669
 6058UDC     C566632   3.582  14.308   6.658  0.4637  0.1057 -1.7201
 6058UDC     C666633   3.661  14.220   6.761 -0.3882  0.2279  0.2787
 6058UDC     C766634   3.593  14.148   6.879  0.4656  0.0670  0.3446
 6058UDC     C866635   3.541  14.243   6.981  0.4582  0.7714  0.6202
 6058UDC     C966636   3.645  14.268   7.093  0.8784 -0.0700 -1.2242
 6058UDC    C1066637   3.570  14.376   7.189  0.2392  0.3904  1.4673
 6058UDC    C1166638   3.653  14.438   7.298  0.6333  0.4436 -0.7879
 6059UDC     C166639   5.164  11.869   8.225  1.0074  0.6332 -0.6578
 6059UDC     C266640   5.026  11.943   8.260  0.2496  0.0350  0.3779
 6059UDC     C366641   5.037  12.089   8.307 -0.7442  0.1885 -0.1509
 6059UDC     C466642   4.916  12.161   8.359  0.7322 -1.2634 -0.1811
 6059UDC     C566643   4.961  12.301   8.410 -0.6297  1.0743 -0.1878
 6059UDC     C666644   4.851  12.392   8.468  0.1137  1.1486  0.1577
 6059UDC     C766645   4.758  12.417   8.349  0.2540  0.1437  0.2001
 6059UDC     C866646   4.623  12.491   8.366  0.2976  1.0990  0.6797
 6059UDC     C966647   4.529  12.412   8.458 -0.7418 -0.8945 -0.3160
 6059UDC    C1066648   4.537  12.259   8.449 -0.9055 -0.1066 -0.5900
 6059UDC    C1166649   4.509  12.179   8.581  0.5846 -0.3174  0.5140
 6060UDC     C166650  13.509  12.532  19.007 -1.1674 -0.0177 -0.2967
 6060UDC     C266651  13.582  12.545  18.882 -0.1329  0.3038  0.1634
 6060UDC     C366652  13.615  12.690  18.845  0.0667  0.3744  0.4082
 6060UDC     C466653  13.703  12.769  18.938  0.2829  0.1227 -0.6601
 6060UDC     C566654  13.852  12.726  18.932  0.4247  1.1065  0.2151
 6060UDC     C666655  13.941  12.813  19.024 -0.3876 -0.4645 -0.6644
 6060UDC     C766656  13.949  12.963  18.982 -1.1940  0.0662 -0.9433
 6060UDC     C866657  14.079  13.028  19.033  1.0795 -0.2528 -0.0093
 6060UDC     C966658  14.179  13.086  18.927  1.1691 -0.4906 -0.0217
 6060UDC    C1066659  14.236  13.011  18.809 -0.4628 -0.6572  0.1333
 6060UDC    C1166660  14.359  12.942  18.866  0.7027  0.2044 -0.7297
 6061UDC     C166661   1.371   1.021  17.242  1.4536  0.1822 -0.1973
 6061UDC     C266662   1.471   1.102  17.330  0.0997  0.7982  1.2732
 6061UDC     C366663   1.423   1.133  17.476  0.3030 -0.1774 -0.7827
 6061UDC     C466664   1.270   1.161  17.493 -0.6759 -0.4236  0.3552
 6061UDC     C566665   1.216   1.304  17.479  0.6165 -0.2489  0.6715
 6061UDC     C666666   1.063   1.284  17.459 -0.7055  0.5904  0.4692
 6061UDC     C766667   0.971   1.399  17.460  0.2933 -0.6187  0.4017
 6061UDC     C866668   0.975   1.481  17.594 -0.6532  1.1661  1.5694
 6061UDC     C966669   0.886   1.608  17.601 -0.3865  0.1819 -0.9156
 6061UDC    C1066670   0.935   1.687  17.720 -0.2215 -0.3691 -0.5340
 6061UDC    C1166671   0.950   1.841  17.681 -0.6131  0.3946  0.7249
 6062UDC     C166672   3.571  10.603   5.210 -0.1440 -0.2589 -0.2484
 6062UDC     C266673   3.438  10.545   5.233  0.6004  0.2506 -0.1941
 6062UDC     C366674   3.404  10.412   5.155  0.0174 -0.9122 -0.4656
 6062UDC     C466675   3.401  10.442   5.004  0.3144  0.0230  0.2027
 6062UDC     C566676   3.303  10.552   4.974 -0.5510 -0.3819  0.3578
 6062UDC     C666677   3.162  10.500   4.995  0.2660 -0.1079 -0.3531
 6062UDC     C766678   3.057  10.619   4.981 -0.0850 -0.1101 -1.4772
 6062UDC     C866679   2.917  10.572   5.019  1.2420  0.3383  0.8071
 6062UDC     C966680   2.811  10.670   4.965 -0.4685 -0.2278 -0.2061
 6062UDC    C1066681   2.660  10.640   4.993 -0.1219  0.7115 -1.0104
 6062UDC    C1166682   2.614  10.627   5.145  0.5843  0.3347  0.6362
 6063UDC     C166683  17.909  12.306   3.678  0.1831 -0.0598 -0.4614
 6063UDC     C266684  17.966  12.435   3.730  1.1248  0.1026  0.3006
 6063UDC     C366685  17.919  12.482   3.874  0.5533  0.1614 -0.3856
 6063UDC     C466686  17.898  12.640   3.884 -0.7597 -0.1381  0.9777
 6063UDC     C566687  17.791  12.695   3.788 -0.0747 -0.3854 -0.1120
 6063UDC     C666688  17.749  12.838   3.809  0.0623 -0.5404  0.4206
 6063UDC     C766689  17.618  12.865   3.738 -0.9012  0.2922 -0.8161
 6063UDC     C866690  17.601  13.012   3.742 -0.1982  0.2596  0.2578
 6063UDC     C966691  17.608  13.087   3.875 -0.9855  0.0331 -0.4036
 6063UDC    C1066692  17.488  13.028   3.957  0.0707  0.2132  1.1672
 6063UDC    C1166693  17.497  13.050   4.107  0.1316  0.4705 -0.5253
 6064UDC     C166694   0.446   2.709   7.744  0.3363 -0.5757  0.0652
 6064UDC     C266695   0.377   2.606   7.649 -0.7092 -0.5917  0.1771
 6064UDC     C366696   0.336   2.641   7.510  0.5394  0.9319 -0.3004
 6064UDC     C466697   0.264   2.531   7.429  0.5243 -1.6373 -1.1182
 6064UDC     C566698   0.237   2.581   7.288  0.4145 -0.2258  0.3575
 6064UDC     C666699   0.181   2.469   7.203 -0.9411 -1.2744  0.1724
 6064UDC     C766700   0.121   2.522   7.074 -0.0665  0.9372  0.3534
 6064UDC     C866701   0.222   2.552   6.964  0.5595 -0.3892  0.5225
 6064UDC     C966702   0.282   2.679   6.906  0.5274  0.0811 -0.5114
 6064UDC    C1066703   0.184   2.772   6.839 -0.9512  0.2384 -0.0503
 6064UDC    C1166704   0.068   2.708   6.759 -0.1653  1.2652 -0.1707
 6065UDC     C166705   8.618  16.002  13.531  1.1734 -0.5458 -0.3991
 6065UDC     C266706   8.643  16.061  13.385 -0.5125  0.2411 -1.2754
 6065UDC     C366707   8.788  16.083  13.353 -0.5985 -0.5319  0.9728
 6065UDC     C466708   8.810  16.143  13.209 -0.2533  0.1731  0.8489
 6065UDC     C566709   8.965  16.135  13.177 -0.6296  0.3277 -0.3331
 6065UDC     C666710   9.043  15.998  13.174  0.0987 -1.2649 -0.8235
 6065UDC     C766711   9.181  16.011  13.114  1.2068 -0.0273 -0.5868
 6065UDC     C866712   9.166  15.985  12.965 -0.0479  0.0401 -0.1054
 6065UDC     C966713   9.155  15.840  12.910  0.0230 -0.0958 -0.1678
 6065UDC    C1066714   9.204  15.831  12.763 -0.3827 -1.2330 -0.1748
 6065UDC    C1166715   9.328  15.921  12.743 -2.0573  0.5290  0.7250
 6066UDC     C166716   1.284   1.487  12.809 -0.0593  0.7200  0.8703
 6066UDC     C266717   1.293   1.338  12.791  0.2391  0.9042 -0.2797
 6066UDC     C366718   1.425   1.262  12.826 -0.0883  0.5079  0.1990
 6066UDC     C466719   1.479   1.324  12.952 -1.1515 -0.3331 -0.3909
 6066UDC     C566720   1.635   1.316  12.954  0.3382 -0.0268 -1.8817
 6066UDC     C666721   1.690   1.414  12.852  1.3002 -0.9677  0.6145
 6066UDC     C766722   1.836   1.396  12.802 -0.1069 -0.7181  0.3543
 6066UDC     C866723   1.923   1.490  12.879 -0.5592  0.2602 -0.2181
 6066UDC     C966724   2.068   1.470  12.845 -0.2581 -0.3576 -0.2535
 6066UDC    C1066725   2.127   1.337  12.875 -1.3063 -0.6614  0.6893
 6066UDC    C1166726   2.280   1.328  12.883 -0.1916 -0.0644  0.5955
 6067UDC     C166727   6.433  19.975  17.205  0.6076 -0.2561  0.4593
 6067UDC     C266728   6.526  19.923  17.097 -0.3180  0.2034 -1.7335
 6067UDC     C366729   6.463  19.870  16.971  0.3425  0.6861 -1.1493
 6067UDC     C466730   6.349  19.965  16.913 -0.1933  0.0653  0.7176
 6067UDC     C566731   6.245  19.913  16.801 -1.1967 -1.2218  0.8870
 6067UDC     C666732   6.225  20.004  16.680  0.7452 -0.5014 -0.6361
 6067UDC     C766733   6.336  20.044  16.589  0.0351  1.1358  0.5753
 6067UDC     C866734   6.326  20.185  16.520  0.4888  0.7402 -0.0281
 6067UDC     C966735   6.448  20.205  16.442 -0.8328 -0.4324  1.4296
 6067UDC    C1066736   6.584  20.239  16.496 -0.6803  0.7838  0.5522
 6067UDC    C1166737   6.595  20.390  16.534  0.2495 -0.6659 -0.2561
 6068UDC     C166738   7.677  13.566  15.839 -0.0401 -0.2034 -0.8009
 6068UDC     C266739   7.815  13.505  15.804  0.1131  0.7114 -0.1120
 6068UDC     C366740   7.859  13.522  15.658 -0.7104 -0.7817  0.3962
 6068UDC     C466741   8.015  13.509  15.637  0.2878 -0.3520 -0.3503
 6068UDC     C566742   8.070  13.603  15.741 -0.2741 -0.4189 -0.1680
 6068UDC     C666743   8.223  13.628  15.741  0.7131  0.8941  0.0434
 6068UDC     C766744   8.253  13.744  15.646  0.0882  0.9537 -0.3165
 6068UDC     C866745   8.399  13.716  15.592 -1.8234 -0.0637  0.6564
 6068UDC     C966746   8.500  13.658  15.695  0.2453  0.1457  0.6789
 6068UDC    C1066747   8.620  13.582  15.631 -1.0626 -0.2325 -0.4117
 6068UDC    C1166748   8.576  13.445  15.569 -0.8460  0.1301 -0.7097
 6069UDC     C166749  13.911  19.427  18.758 -0.4363  0.5522 -0.8829
 6069UDC     C266750  13.764  19.456  18.791  0.5093  0.6854 -0.1396
 6069UDC     C366751  13.737  19.565  18.892 -0.1234 -0.3425 -0.8818
 6069UDC     C466752  13.609  19.540  18.971 -0.0850 -0.2490  0.6571
 6069UDC     C566753  13.594  19.632  19.092 -1.0548  0.0102  0.5267
 6069UDC     C666754  13.573  19.780  19.051 -0.0188  0.0245 -0.0811
 6069UDC     C766755  13.693  19.871  19.092  0.6440  0.0168 -1.0452
 6069UDC     C866756  13.665  20.016  19.078  0.1093 -0.5833  0.0753
 6069UDC     C966757  13.607  20.052  18.943 -0.2977 -0.6832 -0.0923
 6069UDC    C1066758  13.560  20.200  18.932 -0.3974  0.0243  0.0661
 6069UDC    C1166759  13.475  20.239  19.053  0.9959 -0.5978 -0.7572
 6070UDC     C166760   5.437  13.824   6.260 -0.4303  0.0317  0.5223
 6070UDC     C266761   5.402  13.854   6.402  0.3656 -0.8614  0.2842
 6070UDC     C366762   5.518  13.817   6.479 -0.4174  1.2250 -0.2290
 6070UDC     C466763   5.653  13.890   6.467  0.5672  1.3160  1.0850
 6070UDC     C566764   5.753  13.864   6.576 -0.0234  0.4231 -0.3724
 6070UDC     C666765   5.837  13.984   6.617  0.8315 -0.1775 -0.5441
 6070UDC     C766766   5.968  14.000   6.539 -0.3220 -1.0048 -0.6220
 6070UDC     C866767   5.960  14.010   6.386 -0.3014 -0.0823  0.0296
 6070UDC     C966768   6.087  14.060   6.317 -1.1535  0.2915  0.0418
 6070UDC    C1066769   6.067  14.200   6.256 -1.0293 -1.0444  0.0496
 6070UDC    C1166770   6.143  14.324   6.309  2.0388 -0.4190 -0.2803
 6071UDC     C166771   6.095   8.837   1.582 -0.4536 -0.0679 -1.4480
 6071UDC     C266772   6.125   8.744   1.475  0.2194  0.8502  0.5032
 6071UDC     C366773   6.264   8.687   1.482  0.0154  0.1883 -0.2211
 6071UDC     C466774   6.380   8.736   1.390  0.2628  0.5572 -0.3566
 6071UDC     C566775   6.484   8.625   1.411 -0.6971  0.5018 -0.4372
 6071UDC     C666776   6.430   8.477   1.394 -0.2676 -0.3869 -0.5088
 6071UDC     C766777   6.408   8.407   1.255 -0.2001 -0.0772 -0.2595
 6071UDC     C866778   6.365   8.255   1.256 -0.6357 -1.2469 -0.0945
 6071UDC     C966779   6.299   8.186   1.133  0.0379  0.6688 -0.3440
 6071UDC    C1066780   6.346   8.045   1.136  0.3465  0.5437  0.0575
 6071UDC    C1166781   6.507   8.037   1.160  0.5270  0.1716 -0.4377
 6072UDC     C166782  16.813  17.609   4.734  0.0296 -0.7330 -0.2914
 6072UDC     C266783  16.683  17.649   4.661  1.7241 -1.3116 -0.0372
 6072UDC     C366784  16.580  17.535   4.671 -0.1366  0.0103 -0.1431
 6072UDC     C466785  16.603  17.425   4.573 -0.1573  0.2829  1.1773
 6072UDC     C566786  16.518  17.297   4.616  0.8136 -0.2669  0.7715
 6072UDC     C666787  16.483  17.219   4.489  0.2896  0.4187  1.0640
 6072UDC     C766788  16.443  17.071   4.510 -0.1220  0.2939 -1.5902
 6072UDC     C866789  16.465  16.983   4.385 -0.0958 -0.3557 -0.0591
 6072UDC     C966790  16.394  16.847   4.398 -0.3416  0.7460 -0.0093
 6072UDC    C1066791  16.244  16.854   4.441 -0.4955  0.4756 -0.4989
 6072UDC    C1166792  16.130  16.830   4.341 -0.6825  0.4837  0.9756
 6073UDC     C166793   3.614  14.871  15.710  0.1005 -0.3885  0.6833
 6073UDC     C266794   3.704  14.858  15.831 -0.5792  0.4604 -0.3545
 6073UDC     C366795   3.737  14.995  15.882 -0.9629  0.1238 -0.6792
 6073UDC     C466796   3.891  15.005  15.915  1.2056 -0.9497  0.9160
 6073UDC     C566797   3.936  15.077  16.042 -0.8580 -0.2025 -0.1412
 6073UDC     C666798   4.090  15.047  16.032  0.9714 -0.6799  0.0152
 6073UDC     C766799   4.124  14.900  16.071 -0.6759 -0.5809 -0.1819
 6073UDC     C866800   4.268  14.844  16.074  0.5418 -1.0694 -1.5522
 6073UDC     C966801   4.349  14.889  15.949  0.4654 -0.8531  0.9182
 6073UDC    C1066802   4.268  14.857  15.822  0.1693  0.3820  1.0479
 6073UDC    C1166803   4.350  14.887  15.693 -0.8249 -1.2220 -0.6076
 6074UDC     C166804   2.842   0.252  14.477  0.1168 -0.8361 -0.2852
 6074UDC     C266805   2.843   0.154  14.592 -0.0508 -0.0693  0.3619
 6074UDC     C366806   2.962   0.058  14.618  0.5975  0.0923  0.1936
 6074UDC     C466807   2.976  -0.062  14.523  1.1286 -0.1492  0.2558
 6074UDC     C566808   2.880  -0.180  14.546  0.3042 -0.1838  1.6509
 6074UDC     C666809   2.873  -0.293  14.447 -1.1567 -0.7673 -0.7182
 6074UDC     C766810   2.758  -0.275  14.355  0.2931 -0.7055  1.2745
 6074UDC     C866811   2.770  -0.159  14.247 -0.0293  0.1857  0.1145
 6074UDC     C966812   2.644  -0.140  14.160  0.0652  0.6737  0.1916
 6074UDC    C1066813   2.654  -0.175  14.012 -0.1935  0.3794  0.6448
 6074UDC    C1166814   2.765  -0.105  13.931 -0.7868  0.3338 -0.8237
 6075UDC     C166815  10.158  18.624   4.938  1.0430 -0.1214  0.2114
 6075UDC     C266816  10.168  18.770   4.882 -0.0804 -0.7421 -0.7208
 6075UDC     C366817  10.041  18.848   4.911  0.6309  0.1120 -0.2560
 6075UDC     C466818  10.058  18.998   4.861  0.0641  0.5254  0.4644
 6075UDC     C566819   9.942  19.086   4.910  0.5527 -0.6117 -0.3757
 6075UDC     C666820   9.979  19.239   4.910 -0.3268 -1.0177 -1.3703
 6075UDC     C766821  10.069  19.289   4.801  0.3983 -0.0488 -0.8273
 6075UDC     C866822  10.102  19.433   4.815 -0.1758  0.4482  1.0731
 6075UDC     C966823  10.185  19.490   4.693  0.3495 -0.0063  0.6479
 6075UDC    C1066824  10.222  19.634   4.715 -0.6948 -0.7655 -0.3211
 6075UDC    C1166825  10.290  19.696   4.588 -0.5228  0.4353  0.0577
 6076UDC     C166826   8.039  10.439  12.689  0.3990  0.3176  0.7061
 6076UDC     C266827   8.112  10.307  12.724 -0.2118  0.0143  0.5709
 6076UDC     C366828   8.222  10.265  12.629  0.3241  0.8013 -0.8281
 6076UDC     C466829   8.347  10.227  12.714 -0.0863  0.4036 -0.5232
 6076UDC     C566830   8.473  10.202  12.642  0.4471 -0.4298  0.0486
 6076UDC     C666831   8.479  10.093  12.531 -0.6919 -0.6328 -1.4471
 6076UDC     C766832   8.608  10.099  12.453  0.2727  0.7630  0.9494
 6076UDC     C866833   8.628  10.002  12.332  0.5707  1.2101 -0.3247
 6076UDC     C966834   8.770  10.027  12.281 -0.5795 -0.8720  0.8274
 6076UDC    C1066835   8.884  10.013  12.388 -0.0119 -0.1310 -0.1610
 6076UDC    C1166836   9.024   9.947  12.353 -0.5115 -0.8652  0.1117
 6077UDC     C166837  10.997   5.495   6.593 -0.1864 -1.0852  0.3569
 6077UDC     C266838  11.102   5.595   6.646 -0.0073 -0.1193 -1.1593
 6077UDC     C366839  11.108   5.709   6.545 -0.0395 -0.4865 -0.0999
 6077UDC     C466840  11.139   5.681   6.398 -1.0051 -0.1511  0.6137
 6077UDC     C566841  11.075   5.785   6.319  0.1059 -0.7068  0.7022
 6077UDC     C666842  11.132   5.793   6.180 -0.0764  0.0863  0.3340
 6077UDC     C766843  11.267   5.717   6.180  0.8614 -0.2952  1.8736
 6077UDC     C866844  11.374   5.721   6.062  0.5465 -0.5414 -0.1750
 6077UDC     C966845  11.486   5.633   6.107 -0.6136 -0.4988 -1.4985
 6077UDC    C1066846  11.567   5.685   6.221  0.4922 -0.0138 -0.5586
 6077UDC    C1166847  11.665   5.590   6.288 -0.3879  0.2570  0.3379
 6078UDC     C166848  17.017   4.054   8.838 -0.2682 -0.5408  0.1969
 6078UDC     C266849  17.024   4.155   8.722 -0.3013  0.5973 -0.2561
 6078UDC     C366850  16.979   4.085   8.590  0.6903 -0.3642  0.5168
 6078UDC     C466851  16.893   4.184   8.505 -0.0907  1.4257 -0.0867
 6078UDC     C566852  16.827   4.111   8.392  0.2212  1.2299  0.5304
 6078UDC     C666853  16.919   4.039   8.286 -0.7512  0.7387 -0.1002
 6078UDC     C766854  16.896   3.887   8.242  0.2419  0.0221 -0.6631
 6078UDC     C866855  17.012   3.818   8.158 -0.8265  0.0875 -0.4802
 6078UDC     C966856  16.998   3.682   8.089  0.1452 -0.0421  0.2670
 6078UDC    C1066857  17.140   3.615   8.066  2.0173 -0.3364  0.4182
 6078UDC    C1166858  17.133   3.506   7.954 -0.9674  1.2172 -0.0175
 6079UDC     C166859  18.563   0.832   9.894 -1.0106  0.0170  0.6658
 6079UDC     C266860  18.621   0.911   9.783  0.5304 -0.4543 -0.6004
 6079UDC     C366861  18.604   1.054   9.820 -0.4096 -0.5852 -0.2391
 6079UDC     C466862  18.623   1.127   9.687 -0.5095 -0.4192  0.2725
 6079UDC     C566863  18.715   1.253   9.685 -0.1633  0.4584  0.3032
 6079UDC     C666864  18.797   1.285   9.553 -0.1393 -0.3978  0.9480
 6079UDC     C766865  18.943   1.339   9.576  0.5151 -0.1450  0.9156
 6079UDC     C866866  18.986   1.453   9.484 -1.4155  0.1210  0.2008
 6079UDC     C966867  19.075   1.559   9.543  0.4852 -0.5858 -0.7511
 6079UDC    C1066868  19.111   1.687   9.455 -0.4206  0.3278 -0.2116
 6079UDC    C1166869  18.980   1.758   9.432 -0.2757 -0.3242  0.2223
 6080UDC     C166870  14.895  13.889  13.495  1.3049  0.0069 -0.6611
 6080UDC     C266871  15.020  13.854  13.414 -0.5586 -1.7139 -0.5938
 6080UDC     C366872  15.083  13.719  13.443  1.0710  0.9391 -0.2711
 6080UDC     C466873  15.221  13.713  13.389 -0.6368 -0.0541  0.1831
 6080UDC     C566874  15.250  13.622  13.273  0.3894 -1.4813 -0.2342
 6080UDC     C666875  15.220  13.474  13.303  0.4307  1.3107  0.2791
 6080UDC     C766876  15.295  13.395  13.416 -0.6383  0.6157  0.3362
 6080UDC     C866877  15.211  13.279  13.467 -0.6153  0.0102 -0.3197
 6080UDC     C966878  15.290  13.195  13.567 -0.9277 -0.6889 -0.4556
 6080UDC    C1066879  15.231  13.051  13.591  1.0065 -0.8724 -0.4757
 6080UDC    C1166880  15.082  13.073  13.637  0.5390  0.8161 -0.3282
 6081UDC     C166881  17.584  19.409   3.179  0.7157 -0.1830 -0.4832
 6081UDC     C266882  17.497  19.427   3.056 -0.3965  1.0325 -0.1743
 6081UDC     C366883  17.453  19.291   2.999  0.0121 -0.2739  0.1427
 6081UDC     C466884  17.538  19.254   2.878  0.0421  0.3364 -0.4846
 6081UDC     C566885  17.440  19.182   2.785  0.3196 -1.0245  0.5573
 6081UDC     C666886  17.469  19.178   2.625 -0.4092 -1.1461  0.9437
 6081UDC     C766887  17.370  19.106   2.535  0.2117 -0.3776  0.4032
 6081UDC     C866888  17.305  19.002   2.618  1.5240  0.2478 -0.2456
 6081UDC     C966889  17.265  18.900   2.511 -0.3588 -0.1521 -0.2024
 6081UDC    C1066890  17.372  18.825   2.428 -0.0804  0.1987 -0.1948
 6081UDC    C1166891  17.304  18.713   2.342 -0.2725  0.0881  0.0249
 6082UDC     C166892   5.039  10.300   7.313  0.1047  0.7088 -0.1924
 6082UDC     C266893   4.893  10.347   7.314  1.0540 -0.3174  0.3580
 6082UDC     C366894   4.796  10.235   7.361 -0.2473 -0.4333 -0.3605
 6082UDC     C466895   4.646  10.265   7.375  0.7503 -0.8554  0.5948
 6082UDC     C566896   4.616  10.341   7.510  0.8616  0.9998 -0.2260
 6082UDC     C666897   4.636  10.271   7.649  0.0153 -0.2175 -0.5633
 6082UDC     C766898   4.525  10.303   7.748 -0.6392  0.6833  1.1915
 6082UDC     C866899   4.558  10.278   7.896 -0.0028 -0.0525  1.1104
 6082UDC     C966900   4.670  10.369   7.939 -0.5077  0.0414  0.2690
 6082UDC    C1066901   4.733  10.344   8.077  0.0437  0.3959 -0.5536
 6082UDC    C1166902   4.867  10.417   8.099  0.9762 -0.8171 -0.2146
 6083UDC     C166903  19.974  19.753   8.395  0.0678  0.1042  0.4468
 6083UDC     C266904  20.085  19.768   8.505 -0.1571  0.1207  0.8652
 6083UDC     C366905  20.106  19.901   8.580 -0.0928  0.2568 -1.6398
 6083UDC     C466906  20.175  19.869   8.714 -0.6304  0.9319  0.2349
 6083UDC     C566907  20.249  19.993   8.764 -0.6793  0.6128  0.5570
 6083UDC     C666908  20.350  20.016   8.652 -0.7874  0.1889 -0.8794
 6083UDC     C766909  20.454  20.116   8.689 -0.5676  0.3162  0.0012
 6083UDC     C866910  20.407  20.182   8.817 -0.3912 -0.0433 -0.1098
 6083UDC     C966911  20.414  20.327   8.795 -1.2297  0.1407  0.4068
 6083UDC    C1066912  20.284  20.374   8.738  0.7019  0.7228 -0.0582
 6083UDC    C1166913  20.235  20.521   8.765 -0.3862 -0.3962  0.6021
 6084UDC     C166914   1.257   4.228   9.168 -0.7045 -0.2083  0.0945
 6084UDC     C266915   1.160   4.345   9.194 -0.7167 -0.9415 -0.1893
 6084UDC     C366916   1.101   4.352   9.338  0.6838 -0.3234  1.0152
 6084UDC     C466917   1.041   4.215   9.374  0.3966 -0.0398 -0.2899
 6084UDC     C566918   1.012   4.216   9.528 -0.1961 -0.1443  0.4671
 6084UDC     C666919   0.876   4.147   9.560  0.3958  0.3066  0.2158
 6084UDC     C766920   0.828   4.143   9.701  0.8283  0.8379 -0.5964
 6084UDC     C866921   0.937   4.084   9.789  0.6313  0.8681  0.2326
 6084UDC     C966922   0.841   4.022   9.895 -0.4871 -1.2491  0.1220
 6084UDC    C1066923   0.748   3.902   9.853  1.0436  0.0248 -0.1181
 6084UDC    C1166924   0.794   3.768   9.804  0.2847 -0.1440  0.0839
 6085UDC     C166925  19.264   4.043   4.501  1.0136 -0.0078 -0.8439
 6085UDC     C266926  19.146   3.967   4.567 -0.4960  0.2658  0.2044
 6085UDC     C366927  19.114   3.959   4.715  0.2315 -0.0512 -0.5293
 6085UDC     C466928  19.017   3.843   4.761 -0.3397  0.4222  0.9247
 6085UDC     C566929  19.030   3.809   4.914 -0.5285  0.1089  1.0336
 6085UDC     C666930  18.938   3.699   4.967 -0.0408 -0.2178  0.4553
 6085UDC     C766931  18.965   3.662   5.107  0.0373 -0.3622 -0.7213
 6085UDC     C866932  18.882   3.548   5.169  0.0097 -1.4067  1.1171
 6085UDC     C966933  18.940   3.432   5.089  0.3731  0.7495  0.4597
 6085UDC    C1066934  18.928   3.288   5.172  0.4359 -0.1851  0.2109
 6085UDC    C1166935  18.961   3.164   5.078  0.5451 -0.2942 -1.2618
 6086UDC     C166936   1.234  13.293   3.594  0.6280  0.5644  0.8563
 6086UDC     C266937   1.327  13.189   3.525  0.7115 -0.1205  0.6898
 6086UDC     C366938   1.313  13.041   3.557  0.6937  0.3056  0.0457
 6086UDC     C466939   1.411  12.956   3.476 -0.0554  0.5192  0.4885
 6086UDC     C566940   1.559  12.963   3.510 -1.3657  0.2724 -0.1411
 6086UDC     C666941   1.659  12.865   3.436 -0.3181 -0.6754  0.2184
 6086UDC     C766942   1.653  12.715   3.472  0.3999 -0.7170 -0.5910
 6086UDC     C866943   1.773  12.655   3.402  0.3684  0.6332 -0.0742
 6086UDC     C966944   1.893  12.641   3.495  1.0521  0.1755  0.2507
 6086UDC    C1066945   2.004  12.739   3.505  0.3213 -0.7516  0.2010
 6086UDC    C1166946   1.992  12.878   3.572 -0.6033  0.2056 -0.3421
 6087UDC     C166947  13.470   0.667   6.231  0.5076 -0.4081  1.2180
 6087UDC     C266948  13.430   0.697   6.373  0.5454 -0.8104  0.0868
 6087UDC     C366949  13.500   0.620   6.483  0.1382  0.8102 -1.1603
 6087UDC     C466950  13.545   0.724   6.584  1.0152  0.7585 -0.9310
 6087UDC     C566951  13.659   0.803   6.527 -0.1244 -0.5013  0.1793
 6087UDC     C666952  13.719   0.910   6.618 -0.2584 -0.0977 -0.2614
 6087UDC     C766953  13.737   1.033   6.529  0.6612  0.5446  0.1017
 6087UDC     C866954  13.603   1.100   6.483 -1.5448  0.1629 -0.1520
 6087UDC     C966955  13.634   1.208   6.367  0.2611  1.1995  0.5723
 6087UDC    C1066956  13.739   1.143   6.279  0.0500  0.0238  1.6318
 6087UDC    C1166957  13.682   1.026   6.186 -1.7513 -0.5560  0.7522
 6088UDC     C166958  18.301   3.043   8.901  0.2710 -0.2329 -0.4484
 6088UDC     C266959  18.223   3.174   8.940 -0.9640  1.5739 -0.0277
 6088UDC     C366960  18.302   3.302   8.958  0.1894 -0.1645  0.8935
 6088UDC     C466961  18.230   3.398   9.054  0.3399  1.0373 -0.1255
 6088UDC     C566962  18.285   3.528   9.036 -0.8488 -0.0005 -0.6604
 6088UDC     C666963  18.325   3.629   9.145 -0.1687 -0.8648  0.7698
 6088UDC     C766964  18.217   3.649   9.249  0.5808 -0.1415 -0.8730
 6088UDC     C866965  18.257   3.670   9.395 -0.2532 -0.1461 -0.2518
 6088UDC     C966966  18.158   3.721   9.505  0.1010 -0.6648  1.3016
 6088UDC    C1066967  18.011   3.678   9.484 -0.1063  0.8115  1.1053
 6088UDC    C1166968  17.943   3.752   9.601 -1.2966  0.9687  0.5534
 6089UDC     C166969  14.819  17.433  15.288  0.5264 -0.9653 -0.2104
 6089UDC     C266970  14.931  17.538  15.251  0.9980  0.0399 -0.5424
 6089UDC     C366971  15.061  17.496  15.318  0.2649 -0.1656 -0.5122
 6089UDC     C466972  15.057  17.483  15.470  1.1337  0.1447 -0.4287
 6089UDC     C566973  15.190  17.449  15.521 -0.7768  0.3731 -0.1790
 6089UDC     C666974  15.239  17.480  15.665  0.2610 -0.4529 -1.5266
 6089UDC     C766975  15.279  17.627  15.670 -1.0710 -1.0344  0.2623
 6089UDC     C866976  15.406  17.675  15.745 -0.6245  0.1708  1.6408
 6089UDC     C966977  15.434  17.822  15.720 -0.5545 -0.5848  1.2161
 6089UDC    C1066978  15.468  17.871  15.571  0.0209 -0.7133  0.1232
 6089UDC    C1166979  15.349  17.880  15.481  0.9550 -0.0946  0.1777
 6090UDC     C166980  11.665   9.720  12.954 -0.0279  0.0970 -0.3223
 6090UDC     C266981  11.557   9.822  12.920 -0.2190 -1.4603  0.4590
 6090UDC     C366982  11.613   9.950  12.865 -0.1471  0.7754  1.3273
 6090UDC     C466983  11.518  10.050  12.779 -0.2549  0.6009 -1.4613
 6090UDC     C566984  11.561  10.048  12.627  0.7034 -0.4947 -0.3527
 6090UDC     C666985  11.491  10.138  12.517 -0.1465  0.3036 -0.1950
 6090UDC     C766986  11.560  10.152  12.383 -0.0733 -0.6756  0.1797
 6090UDC     C866987  11.500  10.232  12.266 -0.5216 -0.4903 -0.4342
 6090UDC     C966988  11.545  10.196  12.123 -0.8426 -0.7886 -0.3505
 6090UDC    C1066989  11.453  10.099  12.047 -0.1872 -0.3717 -0.7861
 6090UDC    C1166990  11.352  10.035  12.137 -0.1378 -0.0294 -0.1086
 6091UDC     C166991  19.542   7.142  19.901  0.4149 -0.1040 -0.1343
 6091UDC     C266992  19.440   7.091  19.798  0.4134 -1.0991  0.5766
 6091UDC     C366993  19.285   7.100  19.836  0.4734  0.3633 -0.1035
 6091UDC     C466994  19.265   6.989  19.946 -0.0111  0.7884 -0.2943
 6091UDC     C566995  19.126   6.994  20.009 -0.5602  0.8815 -0.5874
 6091UDC     C666996  19.119   6.902  20.132 -0.2257  0.6078  0.6105
 6091UDC     C766997  18.976   6.870  20.168  0.1938 -0.4239 -0.7082
 6091UDC     C866998  18.951   6.792  20.300 -0.6052 -0.0852  0.1794
 6091UDC     C966999  19.024   6.834  20.429 -0.5337 -0.2745 -0.9194
 6091UDC    C1067000  18.967   6.790  20.567  0.0431  0.3260 -0.9362
 6091UDC    C1167001  19.004   6.878  20.685  0.2688 -0.0907 -0.3327
 6092UDC     C167002   0.946   5.027  17.424 -0.3989  0.0678 -0.3693
 6092UDC     C267003   0.852   4.977  17.530 -0.7707 -0.4446  0.0070
 6092UDC     C367004   0.925   4.948  17.656 -1.3433  0.3044  0.3641
 6092UDC     C467005   1.018   4.825  17.666 -0.4476  0.5133 -1.2154
 6092UDC     C567006   1.103   4.824  17.792 -0.5228  0.2411 -0.2071
 6092UDC     C667007   1.153   4.688  17.841 -1.0480  0.7200 -1.2492
 6092UDC     C767008   1.040   4.580  17.845 -0.5018  0.2115  0.4634
 6092UDC     C867009   1.078   4.423  17.838 -0.1109 -0.2940  0.2417
 6092UDC     C967010   0.949   4.347  17.878  0.3717  0.3370  0.6066
 6092UDC    C1067011   0.840   4.339  17.772 -0.2589 -0.2699  0.9429
 6092UDC    C1167012   0.723   4.234  17.793  0.0754 -0.6584 -1.6319
 6093UDC     C167013   0.320   7.340  15.685  0.0429  0.1176 -0.2713
 6093UDC     C267014   0.192   7.402  15.620  0.6263 -0.1186  0.5124
 6093UDC     C367015   0.124   7.519  15.686 -0.4058 -0.5702  0.1145
 6093UDC     C467016   0.012   7.569  15.599  1.0434 -1.1808 -0.4756
 6093UDC     C567017  -0.095   7.642  15.683  0.4383  1.6387  0.9409
 6093UDC     C667018  -0.056   7.788  15.699  0.3934 -0.2666  0.1624
 6093UDC     C767019  -0.008   7.856  15.574 -0.1433  0.7089  0.2476
 6093UDC     C867020  -0.128   7.886  15.481  0.3261 -0.5992 -0.3754
 6093UDC     C967021  -0.093   7.985  15.380  0.3567  0.3560  0.6519
 6093UDC    C1067022  -0.200   7.971  15.270 -0.0838 -1.2282 -0.6708
 6093UDC    C1167023  -0.179   8.046  15.139 -0.0725 -0.3028  0.1203
 6094UDC     C167024   7.597   6.289  12.049 -0.1351 -0.2348 -0.2734
 6094UDC     C267025   7.539   6.428  12.009 -0.2053 -0.2883 -0.0983
 6094UDC     C367026   7.566   6.550  12.101 -0.2763  1.2302 -0.0145
 6094UDC     C467027   7.463   6.651  12.049  0.5724  0.2549  0.2287
 6094UDC     C567028   7.523   6.787  12.064 -0.4693 -1.0263 -0.3659
 6094UDC     C667029   7.454   6.914  12.014  1.1729 -0.2875 -0.0929
 6094UDC     C767030   7.376   6.999  12.114  0.0207  0.6119 -1.5020
 6094UDC     C867031   7.256   7.085  12.058  0.2384  0.1320  0.6093
 6094UDC     C967032   7.130   7.047  12.131  0.3854  0.3263 -0.2884
 6094UDC    C1067033   6.998   7.053  12.051  0.2282  1.8625 -0.0500
 6094UDC    C1167034   7.006   7.120  11.919 -0.2853 -0.1596  0.9071
 6095UDC     C167035   5.279  13.737  14.885 -0.1899  0.2515  0.1433
 6095UDC     C267036   5.219  13.875  14.849 -0.1324  0.7572 -0.5426
 6095UDC     C367037   5.199  13.951  14.982 -0.5200 -0.7305  0.1191
 6095UDC     C467038   5.155  14.093  14.960  0.5096  0.1565  0.5791
 6095UDC     C567039   5.035  14.092  14.859 -0.3437  0.6943 -0.7653
 6095UDC     C667040   4.983  14.238  14.833  0.0595  1.2511 -0.7437
 6095UDC     C767041   5.026  14.280  14.697  0.1401 -0.0432 -0.0372
 6095UDC     C867042   4.906  14.355  14.635 -0.1015  0.7124 -0.2981
 6095UDC     C967043   4.883  14.481  14.719  0.8051 -0.1465  0.7129
 6095UDC    C1067044   5.002  14.584  14.736 -0.8421 -0.1714 -0.5089
 6095UDC    C1167045   4.981  14.711  14.828  0.6576  0.3187 -0.7732
 6096UDC     C167046  19.065  12.432   0.537  0.2907 -0.3789 -0.4784
 6096UDC     C267047  19.147  12.512   0.436 -0.7505 -0.1327  0.0367
 6096UDC     C367048  19.280  12.453   0.377  0.1121 -0.0415 -0.1409
 6096UDC     C467049  19.339  12.512   0.251  0.0810 -0.5689 -0.3441
 6096UDC     C567050  19.464  12.444   0.193 -0.4917  0.4116 -1.0923
 6096UDC     C667051  19.608  12.426   0.259  0.0842 -1.1238 -1.2513
 6096UDC     C767052  19.686  12.309   0.201  0.8166  0.4513 -0.1655
 6096UDC     C867053  19.607  12.178   0.214  0.4784 -0.7692 -0.2697
 6096UDC     C967054  19.627  12.121   0.353  0.6103  0.0920  0.1061
 6096UDC    C1067055  19.517  12.017   0.383  0.6925  0.6200 -0.5475
 6096UDC    C1167056  19.385  12.076   0.432  0.8767  0.6155 -1.0937
 6097UDC     C167057  17.531  14.801  13.444 -0.0532 -0.6677 -0.0095
 6097UDC     C267058  17.432  14.709  13.360 -0.5091  1.0319  0.4638
 6097UDC     C367059  17.283  14.729  13.388  0.6300  0.3212 -0.4023
 6097UDC     C467060  17.153  14.691  13.316  0.9093  1.2294 -0.4521
 6097UDC     C567061  17.138  14.536  13.325  0.6102 -0.7375 -1.3514
 6097UDC     C667062  17.238  14.466  13.237  0.5613  0.2819 -0.0957
 6097UDC     C767063  17.260  14.318  13.263 -0.7011  0.1267 -0.0700
 6097UDC     C867064  17.399  14.257  13.225 -0.3399  0.5688 -1.0943
 6097UDC     C967065  17.416  14.224  13.075  0.6235 -0.1896  0.8095
 6097UDC    C1067066  17.554  14.215  13.011 -1.1112  0.6057  0.6213
 6097UDC    C1167067  17.532  14.155  12.876 -0.8341 -0.1383 -0.0373
 6098UDC     C167068   0.069   6.775  17.001 -0.2053  0.0804  0.4905
 6098UDC     C267069  -0.084   6.734  17.008 -0.9777  1.4527  0.0326
 6098UDC     C367070  -0.142   6.668  16.883 -0.2358  0.3641  0.3777
 6098UDC     C467071  -0.070   6.588  16.777 -0.0680 -0.7439 -0.4777
 6098UDC     C567072  -0.174   6.528  16.678  0.3832  0.0320 -0.6589
 6098UDC     C667073  -0.117   6.447  16.561 -0.6706  0.4684 -0.0489
 6098UDC     C767074  -0.228   6.399  16.461 -0.2278  0.4416 -0.0174
 6098UDC     C867075  -0.349   6.336  16.543 -0.8479  0.1406  0.5642
 6098UDC     C967076  -0.277   6.205  16.587 -0.5578  0.4620  0.9712
 6098UDC    C1067077  -0.206   6.112  16.481  0.0520  0.2812  0.0858
 6098UDC    C1167078  -0.143   6.003  16.567 -0.0072 -0.2048 -0.6764
 6099UDC     C167079   0.919   5.709   1.374 -0.9294  0.0899  1.1009
 6099UDC     C267080   1.014   5.668   1.264 -0.5535  0.7057 -0.7451
 6099UDC     C367081   0.961   5.691   1.122  1.2180 -0.4592  1.5539
 6099UDC     C467082   0.921   5.835   1.076 -0.8583 -0.4559 -0.0291
 6099UDC     C567083   0.843   5.821   0.941 -0.9521 -0.3746 -0.0218
 6099UDC     C667084   0.780   5.952   0.902 -0.2265  0.6482 -0.3016
 6099UDC     C767085   0.786   5.987   0.752  0.5259 -0.4867 -0.1552
 6099UDC     C867086   0.657   6.064   0.719 -0.1835  0.3683  0.8139
 6099UDC     C967087   0.631   6.084   0.570 -0.2960 -0.4026  0.3484
 6099UDC    C1067088   0.516   6.186   0.563 -0.8456  0.0723 -0.6310
 6099UDC    C1167089   0.467   6.204   0.420 -1.1808  0.0240  1.0121
 6100UDC     C167090   5.524   3.700   8.713 -0.1382  0.2088 -0.6398
 6100UDC     C267091   5.523   3.858   8.734 -0.2441  0.2291 -0.6662
 6100UDC     C367092   5.573   3.926   8.606  0.8024 -0.3124 -0.5577
 6100UDC     C467093   5.564   4.078   8.612  1.0084 -0.6178 -1.1209
 6100UDC     C567094   5.663   4.141   8.511 -0.3339  1.2309  1.0073
 6100UDC     C667095   5.805   4.082   8.548  0.3310  0.4637 -0.6388
 6100UDC     C767096   5.924   4.114   8.460 -0.5182 -1.0604 -0.9473
 6100UDC     C867097   5.965   4.260   8.435  0.3146 -0.2582  0.8707
 6100UDC     C967098   6.025   4.326   8.562 -0.8130  0.4969 -0.5258
 6100UDC    C1067099   6.098   4.455   8.531 -0.7055  0.2072 -0.1768
 6100UDC    C1167100   6.014   4.552   8.441 -0.3847 -0.6937 -0.1045
 6101UDC     C167101  17.641   6.452   3.790  0.1521  1.1390  0.2583
 6101UDC     C267102  17.639   6.538   3.669  0.4742 -0.4586  0.2278
 6101UDC     C367103  17.653   6.456   3.539 -0.2456 -0.6053 -0.9798
 6101UDC     C467104  17.510   6.422   3.496  0.9287  0.0282 -0.1688
 6101UDC     C567105  17.522   6.296   3.408  0.2694 -0.0147  0.8658
 6101UDC     C667106  17.401   6.201   3.401 -0.5031  0.4423  0.0729
 6101UDC     C767107  17.379   6.131   3.536 -0.7016 -0.1642 -0.4817
 6101UDC     C867108  17.249   6.057   3.524  0.4414 -1.1222  0.1886
 6101UDC     C967109  17.212   5.963   3.630 -0.1288  0.3586  0.8218
 6101UDC    C1067110  17.100   5.864   3.616 -0.0624 -0.1193  0.3769
 6101UDC    C1167111  17.093   5.758   3.727 -0.4560  0.1642  0.1549
 6102UDC     C167112  16.384  14.035   2.052  0.0029 -0.7412 -0.2903
 6102UDC     C267113  16.311  14.131   1.949 -0.8344 -0.2285 -0.0953
 6102UDC     C367114  16.179  14.178   2.001  0.2135 -0.4336  0.7947
 6102UDC     C467115  16.115  14.277   1.909  0.8912 -0.2749  0.3717
 6102UDC     C567116  16.013  14.340   2.012 -0.2913  0.8415  0.2530
 6102UDC     C667117  16.100  14.427   2.103 -1.0054  0.1770 -0.3101
 6102UDC     C767118  16.026  14.461   2.232 -0.0338 -0.0640 -1.2108
 6102UDC     C867119  16.131  14.506   2.336 -0.3767  0.0803 -0.6310
 6102UDC     C967120  16.083  14.596   2.452  0.5112  0.0250  0.1338
 6102UDC    C1067121  16.175  14.603   2.571 -0.4434 -0.8580 -1.2469
 6102UDC    C1167122  16.322  14.641   2.532  1.1825 -0.2833 -0.3208
 6103UDC     C167123  13.392  11.564  17.965  0.0635 -0.1392  0.3025
 6103UDC     C267124  13.356  11.705  18.007  1.2767 -0.5697 -0.4073
 6103UDC     C367125  13.471  11.787  18.064 -0.3044  0.2771  0.8913
 6103UDC     C467126  13.427  11.917  18.129 -0.2193 -0.2074 -0.1238
 6103UDC     C567127  13.466  12.039  18.045  0.7091  0.2520 -0.3221
 6103UDC     C667128  13.418  12.161  18.126 -0.6843  0.7872  0.1006
 6103UDC     C767129  13.521  12.214  18.226  0.0817  0.2880  0.6746
 6103UDC     C867130  13.497  12.348  18.290  0.8860  0.5493 -0.4075
 6103UDC     C967131  13.420  12.339  18.426  0.9730 -0.1135 -0.9073
 6103UDC    C1067132  13.261  12.349  18.420 -0.0216 -0.2796  0.0506
 6103UDC    C1167133  13.205  12.377  18.557 -0.3635  0.6661 -1.0931
 6104UDC     C167134   1.271  14.539   9.792  0.0411  0.0207 -0.7820
 6104UDC     C267135   1.344  14.505   9.927 -1.4848 -0.9570  0.7199
 6104UDC     C367136   1.502  14.511   9.908 -0.1016  0.8188  0.6588
 6104UDC     C467137   1.565  14.432  10.025  0.0851  0.4374 -0.1962
 6104UDC     C567138   1.697  14.365   9.990 -0.8604 -0.2879  0.8229
 6104UDC     C667139   1.809  14.464   9.989  0.3342  0.3001  0.1108
 6104UDC     C767140   1.845  14.537  10.116 -0.3994  0.0904  1.0902
 6104UDC     C867141   1.990  14.508  10.161 -0.3084  0.8793  0.0245
 6104UDC     C967142   2.109  14.572  10.085  0.7596 -0.2824 -0.6955
 6104UDC    C1067143   2.257  14.572  10.144  0.2438 -0.7183  0.5302
 6104UDC    C1167144   2.363  14.480  10.069 -1.1494  0.1960 -0.7292
 6105UDC     C167145  12.782   3.582  17.580 -0.1629  0.3548 -0.9353
 6105UDC     C267146  12.684   3.686  17.646 -0.4162 -0.1424  0.1917
 6105UDC     C367147  12.553   3.633  17.702 -0.1757 -0.6066 -0.0805
 6105UDC     C467148  12.565   3.498  17.785 -0.7770  0.4077  0.8592
 6105UDC     C567149  12.459   3.437  17.871  0.8776 -0.0732  0.1372
 6105UDC     C667150  12.496   3.314  17.949 -0.2583  0.7542  0.5229
 6105UDC     C767151  12.574   3.229  17.846 -0.8252 -0.0680 -0.4649
 6105UDC     C867152  12.494   3.133  17.755  0.0047  0.1109  0.1918
 6105UDC     C967153  12.570   3.029  17.666  1.2170  0.1182  0.1069
 6105UDC    C1067154  12.656   2.913  17.722 -2.1626 -0.6644  0.6232
 6105UDC    C1167155  12.693   2.820  17.599  0.0339  0.0043 -0.5390
 6106UDC     C167156   6.638  13.508   7.430  0.1380 -0.6494  0.7993
 6106UDC     C267157   6.655  13.570   7.290  0.0937 -0.4005 -1.0665
 6106UDC     C367158   6.615  13.478   7.184 -0.4425 -0.7778  0.6083
 6106UDC     C467159   6.525  13.511   7.058  1.3697  0.5015 -0.1273
 6106UDC     C567160   6.380  13.547   7.073  0.5704  0.0237  0.2030
 6106UDC     C667161   6.342  13.692   7.123 -0.1747  0.2171 -0.0345
 6106UDC     C767162   6.198  13.683   7.180  0.9030 -0.9762  0.1917
 6106UDC     C867163   6.089  13.658   7.071  0.5605  0.0650 -0.4789
 6106UDC     C967164   5.945  13.695   7.121  0.0737 -0.4782 -0.9161
 6106UDC    C1067165   5.937  13.849   7.141  0.4511  0.8247 -0.5021
 6106UDC    C1167166   5.934  13.910   7.002  0.4082 -0.1979  0.2076
 6107UDC     C167167  15.741  15.627  19.649 -0.0311 -0.1718  0.8719
 6107UDC     C267168  15.666  15.498  19.598  1.3181  0.3732  0.4421
 6107UDC     C367169  15.694  15.489  19.447  1.1691 -1.1290 -0.9138
 6107UDC     C467170  15.835  15.488  19.405  0.0134  0.4226 -1.0754
 6107UDC     C567171  15.842  15.376  19.301 -0.8007  0.7674 -0.2891
 6107UDC     C667172  15.840  15.221  19.316  1.1801  0.6836 -0.4316
 6107UDC     C767173  15.957  15.141  19.257 -0.3324  0.7461 -0.9948
 6107UDC     C867174  15.938  15.143  19.107 -0.2356  0.9544  0.0878
 6107UDC     C967175  16.061  15.109  19.019 -0.0795  0.0126  0.9779
 6107UDC    C1067176  16.187  15.193  19.027 -1.6056 -0.1045 -0.1706
 6107UDC    C1167177  16.173  15.333  18.980  0.6778  0.6423 -0.2331
 6108UDC     C167178   1.644   3.644   8.263  0.0395  0.6662 -0.3443
 6108UDC     C267179   1.560   3.666   8.135 -0.5221  0.5559 -0.4051
 6108UDC     C367180   1.415   3.703   8.142 -0.9998  0.2352  0.9740
 6108UDC     C467181   1.340   3.688   8.014 -0.9645 -0.2378  1.0202
 6108UDC     C567182   1.362   3.792   7.905 -2.7654  0.4520  1.1714
 6108UDC     C667183   1.300   3.928   7.891 -0.5973 -0.6450 -0.5465
 6108UDC     C767184   1.359   4.000   7.765  0.1785 -0.1699 -0.6251
 6108UDC     C867185   1.295   4.136   7.756 -0.5278  0.0604 -1.1695
 6108UDC     C967186   1.348   4.203   7.632 -0.8666 -0.4197  0.5831
 6108UDC    C1067187   1.238   4.305   7.588  0.4598  1.0014 -0.0087
 6108UDC    C1167188   1.282   4.394   7.472 -0.6670 -0.5149  0.4238
 6109UDC     C167189   3.444   2.706   9.766 -0.2184  0.2020  0.5228
 6109UDC     C267190   3.430   2.731   9.614  0.6372 -0.2899 -0.6778
 6109UDC     C367191   3.289   2.722   9.549 -1.0875 -0.4132  0.6656
 6109UDC     C467192   3.255   2.606   9.454  0.6692 -0.0831 -0.0699
 6109UDC     C567193   3.370   2.515   9.392 -0.0283  0.7575  0.1602
 6109UDC     C667194   3.316   2.380   9.336 -0.5382 -0.1294  0.1393
 6109UDC     C767195   3.216   2.402   9.220 -0.0211  0.4344 -1.1623
 6109UDC     C867196   3.119   2.276   9.211 -0.1796 -0.6234  0.4002
 6109UDC     C967197   2.995   2.286   9.130 -0.8668  0.0523  0.6413
 6109UDC    C1067198   2.916   2.414   9.157 -0.7129  1.1203  0.3111
 6109UDC    C1167199   2.835   2.464   9.027 -1.5582  1.1774  0.0130
 6110UDC     C167200  19.440  12.721  12.181  0.4884 -0.7107 -0.3440
 6110UDC     C267201  19.492  12.616  12.083  0.5044 -0.0125 -0.3775
 6110UDC     C367202  19.603  12.522  12.142 -0.1736 -1.2988  0.5669
 6110UDC     C467203  19.562  12.380  12.183  0.3669  0.3404  0.6904
 6110UDC     C567204  19.529  12.268  12.075 -0.3167  0.2567  0.1493
 6110UDC     C667205  19.470  12.141  12.144  0.1108 -1.4325  0.3037
 6110UDC     C767206  19.358  12.189  12.233  0.8289  0.5662 -0.7555
 6110UDC     C867207  19.288  12.051  12.240  0.2475  1.0870  0.7542
 6110UDC     C967208  19.155  12.049  12.299  0.5373  0.1983 -0.0311
 6110UDC    C1067209  19.143  12.080  12.446 -0.2773 -0.0565 -0.9196
 6110UDC    C1167210  18.991  12.097  12.475  0.1166 -0.3004  0.6269
 6111UDC     C167211   0.709   3.634   3.832 -0.3120 -0.3359 -0.6273
 6111UDC     C267212   0.593   3.732   3.807  0.2056 -0.8911 -0.1567
 6111UDC     C367213   0.459   3.661   3.768  0.8575  0.7408 -0.3347
 6111UDC     C467214   0.367   3.636   3.888  0.1181  0.0036 -0.6957
 6111UDC     C567215   0.222   3.596   3.864  0.9910 -0.5364  0.0244
 6111UDC     C667216   0.203   3.463   3.787 -0.3569 -0.0224 -0.2817
 6111UDC     C767217   0.055   3.406   3.786  0.3805  0.1094 -0.0643
 6111UDC     C867218   0.063   3.278   3.705  0.8611 -0.1345 -0.2222
 6111UDC     C967219  -0.080   3.221   3.675 -0.2762  1.2312  0.3192
 6111UDC    C1067220  -0.097   3.127   3.552 -0.3642 -0.3969 -0.6340
 6111UDC    C1167221  -0.033   3.156   3.421 -0.8685  0.1210 -0.2019
 6112UDC     C167222   1.800  18.991  11.501 -0.2942 -0.8605 -0.0917
 6112UDC     C267223   1.783  19.015  11.652  0.1496  0.7500  0.3527
 6112UDC     C367224   1.857  18.910  11.736 -0.5910 -0.1377 -1.0331
 6112UDC     C467225   1.872  18.927  11.892 -1.0247  0.0581 -0.0105
 6112UDC     C567226   1.961  18.820  11.963 -0.2241 -0.4198 -0.1733
 6112UDC     C667227   1.984  18.867  12.111  0.4660  0.3801  0.0612
 6112UDC     C767228   2.075  18.751  12.183 -0.2960 -0.2059  0.8706
 6112UDC     C867229   2.218  18.738  12.139  0.0675  1.0938 -0.5664
 6112UDC     C967230   2.280  18.625  12.229  0.3549 -1.1531  0.3899
 6112UDC    C1067231   2.159  18.540  12.266 -0.0589  0.5355 -0.8404
 6112UDC    C1167232   2.187  18.472  12.407  0.8753  0.2366 -0.1676
 6113UDC     C167233  14.439  19.218   3.425 -0.3790 -1.4529  1.3995
 6113UDC     C267234  14.321  19.254   3.521 -1.2121  0.7591  0.5478
 6113UDC     C367235  14.298  19.139   3.620 -0.5570  0.0688  0.1886
 6113UDC     C467236  14.428  19.091   3.693  0.1712  0.5419 -0.8116
 6113UDC     C567237  14.407  18.951   3.759  0.3481  0.5529  0.2890
 6113UDC     C667238  14.522  18.854   3.768 -0.3941  0.0002 -1.4729
 6113UDC     C767239  14.491  18.726   3.849  1.2904 -1.0354  0.2699
 6113UDC     C867240  14.438  18.731   3.995  0.0555  0.0500 -0.3526
 6113UDC     C967241  14.543  18.713   4.105  0.0151 -0.4753 -0.0605
 6113UDC    C1067242  14.604  18.850   4.147 -0.3522 -0.5654 -0.5012
 6113UDC    C1167243  14.733  18.809   4.228  0.8954 -0.5102 -0.5662
 6114UDC     C167244   7.724   6.312  10.355  0.0674 -0.2169  0.3612
 6114UDC     C267245   7.757   6.158  10.353 -1.2871 -0.5232  0.1509
 6114UDC     C367246   7.647   6.094  10.420 -0.8015 -0.0312 -1.5216
 6114UDC     C467247   7.672   5.943  10.418  0.5226 -0.1929  0.4540
 6114UDC     C567248   7.559   5.856  10.466 -0.4109 -0.1217  1.3095
 6114UDC     C667249   7.552   5.731  10.384  0.6291 -0.3868 -0.6673
 6114UDC     C767250   7.431   5.636  10.381 -0.0378  0.8606 -0.5914
 6114UDC     C867251   7.423   5.542  10.266  0.0352  0.3397  0.1200
 6114UDC     C967252   7.288   5.468  10.262 -0.3146  0.0580 -0.0756
 6114UDC    C1067253   7.259   5.355  10.161 -0.1427 -0.5588 -0.2327
 6114UDC    C1167254   7.144   5.266  10.200 -0.2351  0.8960 -0.4252
 6115UDC     C167255  15.962   8.372  10.428 -0.7377 -0.6541  0.0806
 6115UDC     C267256  16.072   8.269  10.474  1.1381 -0.3453 -0.3178
 6115UDC     C367257  16.198   8.264  10.383 -0.5101 -0.8569 -0.5857
 6115UDC     C467258  16.245   8.124  10.413 -0.7622  0.5762  0.7099
 6115UDC     C567259  16.358   8.067  10.319  1.0096 -0.1811  0.5359
 6115UDC     C667260  16.483   7.998  10.378  0.4866  0.1719  0.3521
 6115UDC     C767261  16.587   8.075  10.454  1.4814 -1.5894 -0.3558
 6115UDC     C867262  16.681   7.981  10.510 -0.5273 -1.2300 -0.4145
 6115UDC     C967263  16.769   8.029  10.629 -0.2741 -0.3840  0.1085
 6115UDC    C1067264  16.890   7.935  10.662  0.5006 -0.5340  0.5573
 6115UDC    C1167265  16.985   7.983  10.773 -0.3456  0.7293  0.2322
 6116UDC     C167266  14.053   3.926  17.041 -0.9280  0.0400 -1.0946
 6116UDC     C267267  14.138   4.019  17.125  0.0383 -0.2836  0.3396
 6116UDC     C367268  14.053   4.079  17.236  0.3402 -0.8055 -0.0949
 6116UDC     C467269  13.956   3.978  17.291  0.3902  1.1914 -1.4625
 6116UDC     C567270  13.871   4.021  17.414 -0.0440 -1.0177  0.9605
 6116UDC     C667271  13.810   3.897  17.478 -0.5262 -0.6693 -1.4186
 6116UDC     C767272  13.907   3.796  17.521 -0.6917 -0.3176 -1.1921
 6116UDC     C867273  13.842   3.666  17.563 -0.7991 -1.4538 -0.1504
 6116UDC     C967274  13.928   3.544  17.580 -0.8572 -0.0082  0.0428
 6116UDC    C1067275  14.022   3.516  17.458  0.2453 -0.4465  0.3539
 6116UDC    C1167276  14.019   3.367  17.417 -1.4545  0.2391  0.5522
 6117UDC     C167277  15.065   6.975   6.547 -0.1954 -1.3153 -0.5517
 6117UDC     C267278  15.093   6.825   6.530 -0.2147  1.0343 -0.1943
 6117UDC     C367279  14.960   6.745   6.537 -0.7890  0.2607 -0.0638
 6117UDC     C467280  14.988   6.601   6.583 -0.4666  0.0509 -0.0811
 6117UDC     C567281  15.019   6.598   6.735  0.2836  0.5893 -0.0726
 6117UDC     C667282  15.033   6.457   6.788 -0.1347 -0.1284 -0.9352
 6117UDC     C767283  14.916   6.380   6.831 -0.5162  0.6817 -0.4885
 6117UDC     C867284  14.876   6.418   6.978 -0.5189  1.3785  0.7291
 6117UDC     C967285  14.746   6.332   7.016  0.5050  0.8419 -0.1688
 6117UDC    C1067286  14.759   6.188   6.965 -0.1671  1.0487 -1.6531
 6117UDC    C1167287  14.641   6.093   7.014  0.0912  0.7074  0.8230
 6118UDC     C167288  12.647   2.899  14.527 -0.0066  0.8101  0.5039
 6118UDC     C267289  12.764   2.841  14.444 -0.4552  0.0811  0.0703
 6118UDC     C367290  12.782   2.693  14.488 -1.0205 -0.1549  0.5590
 6118UDC     C467291  12.656   2.612  14.457  0.1078 -0.2360  0.3343
 6118UDC     C567292  12.709   2.466  14.450 -0.0858 -0.2851 -0.0506
 6118UDC     C667293  12.623   2.358  14.376  0.0213 -0.1522  0.5810
 6118UDC     C767294  12.629   2.373  14.228  0.1990  0.6185  0.2014
 6118UDC     C867295  12.501   2.305  14.170  0.2556 -0.4820  0.2395
 6118UDC     C967296  12.408   2.389  14.070  0.1763 -0.2739 -0.4916
 6118UDC    C1067297  12.310   2.299  13.975 -0.4098  0.6121 -0.1302
 6118UDC    C1167298  12.196   2.225  14.050  0.5628 -0.3020  0.1449
 6119UDC     C167299  17.309   7.466   9.608 -0.0958 -0.3881 -0.0559
 6119UDC     C267300  17.170   7.400   9.630  0.0736 -0.0730  0.8959
 6119UDC     C367301  17.064   7.469   9.539  1.1765  0.3590  0.7650
 6119UDC     C467302  17.074   7.622   9.564  0.9609  0.2329  0.1340
 6119UDC     C567303  16.972   7.706   9.492 -0.8507 -0.3648 -0.1621
 6119UDC     C667304  16.830   7.684   9.520  0.3302 -0.3403 -0.0367
 6119UDC     C767305  16.727   7.768   9.452 -0.5996 -0.1525  0.0947
 6119UDC     C867306  16.754   7.777   9.301  0.5319 -0.1718  0.3355
 6119UDC     C967307  16.644   7.852   9.232 -0.4841  1.4145 -0.0198
 6119UDC    C1067308  16.644   7.870   9.082 -0.9876 -0.0465  0.0510
 6119UDC    C1167309  16.613   7.736   9.014  0.5853 -0.5144  0.2866
 6120UDC     C167310  18.769  12.972   1.547 -0.2288  0.4789  0.5625
 6120UDC     C267311  18.786  13.068   1.665  0.6530  0.6271  0.1444
 6120UDC     C367312  18.914  13.044   1.737 -0.6257  0.5764  0.5218
 6120UDC     C467313  18.930  13.152   1.838  0.3441  0.6730 -0.4140
 6120UDC     C567314  18.913  13.290   1.779  0.6072  0.4294 -0.5651
 6120UDC     C667315  18.906  13.396   1.887  0.4738 -0.8292 -0.9943
 6120UDC     C767316  18.784  13.384   1.975  0.9542 -0.5617 -1.0030
 6120UDC     C867317  18.650  13.429   1.912 -0.9476  0.2565  0.3524
 6120UDC     C967318  18.524  13.383   1.976 -1.1654 -0.1431 -0.7583
 6120UDC    C1067319  18.492  13.227   1.967  0.8815 -0.6843 -0.0760
 6120UDC    C1167320  18.346  13.178   1.978  0.3127 -0.3184 -0.3162
 6121UDC     C167321   5.467  11.117   4.730 -0.6286 -0.3450 -0.3847
 6121UDC     C267322   5.499  11.127   4.582  0.6287  1.3175  0.4762
 6121UDC     C367323   5.436  11.003   4.512 -0.0321  0.2612 -0.1350
 6121UDC     C467324   5.483  10.984   4.365  0.3434 -0.1328  0.2332
 6121UDC     C567325   5.404  11.080   4.280  0.7851  0.3731  0.2330
 6121UDC     C667326   5.424  11.037   4.133  0.7757 -0.6356 -0.2242
 6121UDC     C767327   5.372  11.143   4.034 -0.2425 -0.5190  0.3293
 6121UDC     C867328   5.380  11.099   3.884 -0.2075 -0.0587  0.5933
 6121UDC     C967329   5.341  11.204   3.771  1.0805  0.7808  0.5669
 6121UDC    C1067330   5.302  11.133   3.633 -0.6207 -0.1292  0.3210
 6121UDC    C1167331   5.203  11.213   3.540  0.0288  0.3761  0.2901
 6122UDC     C167332  12.680  14.348   0.232 -0.5831 -0.1833 -0.1422
 6122UDC     C267333  12.720  14.442   0.344 -1.3726 -0.1684 -0.0230
 6122UDC     C367334  12.633  14.568   0.369  0.6686  0.8502  1.4296
 6122UDC     C467335  12.705  14.691   0.435 -0.8259 -0.2637 -1.1254
 6122UDC     C567336  12.626  14.803   0.509  0.4159  0.3226 -0.0953
 6122UDC     C667337  12.706  14.902   0.597  0.4290 -0.0168  1.2518
 6122UDC     C767338  12.770  14.865   0.733  0.3105  0.6121  0.1690
 6122UDC     C867339  12.871  14.964   0.776  0.1612 -1.9118  0.1406
 6122UDC     C967340  13.014  14.919   0.793 -0.0773 -0.4894  0.4438
 6122UDC    C1067341  13.089  14.858   0.673 -0.6681 -0.3151  0.7494
 6122UDC    C1167342  13.242  14.849   0.699  0.0511 -0.2799 -0.5537
 6123UDC     C167343  11.454  16.601  15.270  1.4988 -0.0285  0.3494
 6123UDC     C267344  11.404  16.653  15.404 -0.3183 -0.9465  0.3006
 6123UDC     C367345  11.467  16.791  15.451  0.5962  1.1832  0.5302
 6123UDC     C467346  11.415  16.901  15.358 -0.0421  0.0165 -0.5089
 6123UDC     C567347  11.406  17.042  15.420  0.0385 -0.1794  0.9597
 6123UDC     C667348  11.280  17.080  15.489  0.5723  0.1324 -1.0363
 6123UDC     C767349  11.197  17.181  15.404  0.0271  0.2633 -0.2356
 6123UDC     C867350  11.141  17.108  15.284  0.6372  0.2538  0.0033
 6123UDC     C967351  11.138  17.202  15.164  0.3687 -0.2394 -0.0951
 6123UDC    C1067352  11.058  17.332  15.198 -1.4930  0.2572  0.7469
 6123UDC    C1167353  11.071  17.444  15.091  1.2601 -0.0933  0.1646
 6124UDC     C167354  15.573  18.500   1.666 -0.5896  0.3212 -1.1899
 6124UDC     C267355  15.616  18.371   1.585  0.1336 -0.2914 -0.3985
 6124UDC     C367356  15.516  18.265   1.557  1.0259  0.8058  0.0922
 6124UDC     C467357  15.568  18.129   1.501  0.2563  0.2170 -0.8252
 6124UDC     C567358  15.679  18.054   1.574 -0.2709 -0.0106  0.8269
 6124UDC     C667359  15.775  18.006   1.456 -0.0920  0.1545 -0.5894
 6124UDC     C767360  15.896  17.920   1.498  0.6662 -0.6877  0.9736
 6124UDC     C867361  15.836  17.800   1.562  0.3599  0.2525  1.3845
 6124UDC     C967362  15.772  17.679   1.490  0.3057  0.8489  0.1824
 6124UDC    C1067363  15.869  17.580   1.412  0.5591  0.3216 -0.7298
 6124UDC    C1167364  15.776  17.508   1.303 -0.9076 -0.1776 -1.3735
 6125UDC     C167365  14.333   1.167  15.219 -0.7480  0.2684  0.5924
 6125UDC     C267366  14.187   1.221  15.230 -0.3820 -0.0937 -0.6372
 6125UDC     C367367  14.194   1.371  15.243 -0.6157  0.6779 -0.0616
 6125UDC     C467368  14.052   1.426  15.232 -0.5685 -0.3798  0.2262
 6125UDC     C567369  14.037   1.573  15.202 -0.8084 -0.5999 -0.4253
 6125UDC     C667370  14.044   1.604  15.057  1.3400  0.1579  0.5266
 6125UDC     C767371  13.959   1.732  15.017  1.0891 -0.7922 -0.0381
 6125UDC     C867372  13.866   1.723  14.900  0.2413 -0.3424  0.9061
 6125UDC     C967373  13.958   1.708  14.774 -0.5968 -0.1152  0.2359
 6125UDC    C1067374  13.910   1.582  14.694 -0.4095 -0.7589 -0.9171
 6125UDC    C1167375  13.986   1.540  14.565 -0.6168  0.4303  0.5484
 6126UDC     C167376  17.764  13.567   6.886 -0.1708 -0.8124 -0.1049
 6126UDC     C267377  17.903  13.620   6.834  0.1700  0.7585  0.4896
 6126UDC     C367378  17.949  13.550   6.709 -0.1041 -0.1404  1.3434
 6126UDC     C467379  18.078  13.593   6.652  0.2825 -0.2911  0.8645
 6126UDC     C567380  18.133  13.516   6.531 -0.3059  0.1466 -0.0514
 6126UDC     C667381  18.040  13.497   6.406  0.1400  0.8128  0.0720
 6126UDC     C767382  18.080  13.378   6.316 -1.0829  0.6025 -0.1223
 6126UDC     C867383  18.231  13.346   6.308 -0.5677  1.3119 -0.3543
 6126UDC     C967384  18.266  13.252   6.193  0.6852  0.3787  0.3520
 6126UDC    C1067385  18.179  13.124   6.173 -0.3125 -0.4284  0.3509
 6126UDC    C1167386  18.232  13.025   6.057 -0.7053 -0.0775 -0.3607
 6127UDC     C167387  17.221   5.311   8.220  0.1078 -0.1494 -0.2477
 6127UDC     C267388  17.250   5.276   8.074  0.7223  0.2149  0.1006
 6127UDC     C367389  17.135   5.201   8.011 -0.6217  0.1947  0.3183
 6127UDC     C467390  17.146   5.165   7.865  0.7215 -0.1960 -0.1396
 6127UDC     C567391  17.160   5.284   7.762  0.1561 -0.4514 -0.4153
 6127UDC     C667392  17.054   5.390   7.795 -0.8133 -0.0757  0.1823
 6127UDC     C767393  17.055   5.477   7.671 -0.5477  0.0929  0.7560
 6127UDC     C867394  17.202   5.482   7.611  0.3430  0.0429  0.3788
 6127UDC     C967395  17.218   5.538   7.463 -0.2947 -0.3032 -0.6122
 6127UDC    C1067396  17.362   5.545   7.402  0.2202 -0.1885  1.1051
 6127UDC    C1167397  17.356   5.619   7.271 -0.3554 -0.0609  0.0825
 6128UDC     C167398   8.782  17.427   6.968  0.9858  1.5665  0.4964
 6128UDC     C267399   8.759  17.299   7.050  1.2320 -0.4231 -0.7979
 6128UDC     C367400   8.864  17.268   7.156 -0.5026 -0.2048 -0.0290
 6128UDC     C467401   8.870  17.138   7.220  0.7096  0.7560 -1.1024
 6128UDC     C567402   8.993  17.100   7.295  0.6731  0.2022 -0.0034
 6128UDC     C667403   8.971  16.989   7.396 -0.1578 -0.5124  1.0841
 6128UDC     C767404   8.827  16.971   7.437  0.9341 -0.0698 -0.5280
 6128UDC     C867405   8.784  16.851   7.525  0.4665  0.2449 -0.3656
 6128UDC     C967406   8.870  16.868   7.652  0.7342  1.0476 -0.2183
 6128UDC    C1067407   8.854  16.773   7.768  0.4797  0.8901 -0.1503
 6128UDC    C1167408   8.966  16.781   7.870  0.3074  0.9669  0.4090
 6129UDC     C167409  13.105   6.881   7.135  0.0589 -0.2302  0.6287
 6129UDC     C267410  13.235   6.812   7.105 -0.0662  1.3909  0.0223
 6129UDC     C367411  13.344   6.841   7.209  0.6214  1.1326 -1.3324
 6129UDC     C467412  13.296   6.806   7.356 -1.0240 -0.1409  0.2093
 6129UDC     C567413  13.388   6.853   7.479  1.6548 -0.4707  0.6533
 6129UDC     C667414  13.365   6.773   7.612 -1.3307  0.3649 -0.1397
 6129UDC     C767415  13.392   6.851   7.740  0.1161  0.6227 -0.9344
 6129UDC     C867416  13.462   6.754   7.841  0.0689  0.3403 -0.7127
 6129UDC     C967417  13.490   6.782   7.991  0.4500 -0.5375 -0.5544
 6129UDC    C1067418  13.383   6.859   8.075  0.6846  0.1371 -0.2550
 6129UDC    C1167419  13.394   6.853   8.228 -0.3623  0.5061 -0.4980
 6130UDC     C167420   0.394   2.340  10.517  0.3505  0.7373  0.5265
 6130UDC     C267421   0.332   2.222  10.434 -0.5648  0.2853 -0.8681
 6130UDC     C367422   0.334   2.223  10.281 -1.2035 -0.0639 -0.1526
 6130UDC     C467423   0.317   2.361  10.208 -0.4773  0.5281 -0.1618
 6130UDC     C567424   0.163   2.385  10.228  0.4432 -0.7320 -1.3161
 6130UDC     C667425   0.114   2.518  10.172 -0.0495 -1.1081 -0.9962
 6130UDC     C767426   0.188   2.625  10.251 -0.1715  1.4991  0.3443
 6130UDC     C867427   0.122   2.631  10.390  0.1950 -0.1415  0.5783
 6130UDC     C967428   0.171   2.741  10.486  1.6771  0.3253 -0.1383
 6130UDC    C1067429   0.084   2.720  10.609 -0.7468 -0.7517  0.1892
 6130UDC    C1167430   0.163   2.614  10.694  0.1756  0.6231  0.3392
 6131UDC     C167431   3.980  17.524   7.717 -0.2517  0.4538 -0.5850
 6131UDC     C267432   3.840  17.504   7.658 -0.6425 -1.7672 -0.4462
 6131UDC     C367433   3.873  17.417   7.535 -0.9039  0.1430  0.5703
 6131UDC     C467434   3.965  17.463   7.422 -0.5694 -0.2244  0.2507
 6131UDC     C567435   3.987  17.350   7.317 -0.4683 -1.2099 -0.7397
 6131UDC     C667436   4.048  17.382   7.180  0.3264  0.3542 -0.6845
 6131UDC     C767437   4.014  17.271   7.084 -0.3580 -0.4108 -0.0745
 6131UDC     C867438   3.870  17.295   7.050  0.3818 -0.9662  0.3302
 6131UDC     C967439   3.838  17.422   6.963  0.9540  0.8447 -0.5798
 6131UDC    C1067440   3.689  17.421   6.940  0.4952  0.0753  0.4096
 6131UDC    C1167441   3.631  17.536   6.855  0.3423 -0.0050  0.7024
 6132UDC     C167442  14.821  17.847  18.835  0.7860  0.1346  1.2076
 6132UDC     C267443  14.939  17.939  18.882 -0.8491 -0.2152  0.3857
 6132UDC     C367444  15.014  17.992  18.755  0.1802  0.0678 -0.1237
 6132UDC     C467445  15.132  18.083  18.796 -0.6968  0.4256 -0.4430
 6132UDC     C567446  15.086  18.218  18.858 -0.5014 -1.0238 -0.2513
 6132UDC     C667447  15.187  18.330  18.902  0.5558 -0.1663 -0.5300
 6132UDC     C767448  15.296  18.270  18.993 -0.7124 -0.5188  0.4021
 6132UDC     C867449  15.403  18.370  19.048  0.5342  0.3054 -1.1080
 6132UDC     C967450  15.511  18.286  19.122 -0.2066  0.2130  0.1858
 6132UDC    C1067451  15.614  18.221  19.029  0.5027 -0.7220 -0.1337
 6132UDC    C1167452  15.720  18.145  19.108 -0.1663  0.1722 -0.8418
 6133UDC     C167453  16.773   5.216   1.340  0.0752 -0.2889 -0.0331
 6133UDC     C267454  16.793   5.168   1.490 -0.2142 -0.6043 -0.0381
 6133UDC     C367455  16.878   5.240   1.593 -0.5771 -0.1190 -0.0063
 6133UDC     C467456  16.895   5.158   1.724 -0.8174 -0.8310  1.1292
 6133UDC     C567457  16.760   5.150   1.791 -1.0198 -0.3637 -1.4598
 6133UDC     C667458  16.768   5.040   1.896  0.2281 -0.7506 -0.4499
 6133UDC     C767459  16.848   4.919   1.851  0.3798  0.0631 -1.6828
 6133UDC     C867460  16.907   4.844   1.972 -0.5991  1.1933 -0.2767
 6133UDC     C967461  16.841   4.703   1.990  0.0005 -0.1189 -0.8820
 6133UDC    C1067462  16.896   4.590   2.075  0.4236  0.2104 -0.1202
 6133UDC    C1167463  16.807   4.477   2.025  0.2995  0.7751  0.9012
 6134UDC     C167464  17.220  15.409   4.473 -0.3122  0.4542 -0.4220
 6134UDC     C267465  17.159  15.454   4.597 -0.8041 -0.2874 -1.4751
 6134UDC     C367466  17.186  15.599   4.621  0.1726  0.0297  0.1842
 6134UDC     C467467  17.071  15.677   4.694  0.2592 -0.2781  0.5500
 6134UDC     C567468  17.079  15.829   4.682  0.1741 -0.5127 -1.0437
 6134UDC     C667469  17.119  15.883   4.549 -0.2720  0.6055  0.3373
 6134UDC     C767470  17.165  16.037   4.571  0.6529  0.3304 -0.3620
 6134UDC     C867471  17.223  16.116   4.453  1.1525  0.9892 -0.0023
 6134UDC     C967472  17.293  16.242   4.507  0.5712 -0.2679 -0.1238
 6134UDC    C1067473  17.307  16.347   4.395  0.0815 -0.6994  0.0694
 6134UDC    C1167474  17.397  16.461   4.443 -0.1963  0.0203  0.0016
 6135UDC     C167475  11.939   8.181   1.810  0.4749 -0.3069  0.4773
 6135UDC     C267476  11.875   8.065   1.895 -0.3288 -1.1961  0.7632
 6135UDC     C367477  11.792   7.983   1.790 -0.0175  0.4055  0.2875
 6135UDC     C467478  11.804   8.041   1.650 -0.3616  0.2248  0.5270
 6135UDC     C567479  11.781   7.943   1.529  0.2857 -0.1390 -0.1521
 6135UDC     C667480  11.713   7.998   1.411 -0.7466  0.5054 -0.3262
 6135UDC     C767481  11.568   8.046   1.428 -0.7197 -0.8186 -0.0522
 6135UDC     C867482  11.522   8.123   1.307 -1.0596 -0.3818  0.4215
 6135UDC     C967483  11.370   8.144   1.320 -0.6580  0.5294  0.1487
 6135UDC    C1067484  11.305   8.243   1.222  0.2001 -0.2847  0.6931
 6135UDC    C1167485  11.171   8.302   1.265  0.5067 -0.1579 -0.2906
 6136UDC     C167486  19.380   9.995   7.282 -0.7413 -0.0934 -0.0991
 6136UDC     C267487  19.341  10.133   7.246 -1.0782 -1.0119  1.7449
 6136UDC     C367488  19.401  10.182   7.106  0.8648  0.1093 -0.1425
 6136UDC     C467489  19.345  10.100   6.983  1.2293 -0.2789  1.0424
 6136UDC     C567490  19.381  10.146   6.841  1.3552 -0.8130  0.1603
 6136UDC     C667491  19.298  10.264   6.784  0.4871 -1.0455 -1.1135
 6136UDC     C767492  19.309  10.293   6.637 -0.7721  0.2338 -0.8082
 6136UDC     C867493  19.248  10.202   6.536 -0.0202 -0.4847 -0.3623
 6136UDC     C967494  19.288  10.235   6.391  0.9817  0.1549 -1.0954
 6136UDC    C1067495  19.432  10.186   6.371 -0.9726 -0.2233  0.2999
 6136UDC    C1167496  19.502  10.234   6.242 -0.1411  0.1160  0.8926
 6137UDC     C167497   8.122  18.691  16.558  0.1382 -0.1095 -0.5630
 6137UDC     C267498   8.030  18.626  16.666  0.0399  0.1106 -0.1823
 6137UDC     C367499   7.904  18.546  16.613 -0.4494 -0.1318  0.4935
 6137UDC     C467500   7.792  18.641  16.583  0.4702  0.1535 -0.0263
 6137UDC     C567501   7.656  18.574  16.563 -0.2842 -0.3110  0.6889
 6137UDC     C667502   7.602  18.530  16.702 -0.8034 -0.1301 -0.6746
 6137UDC     C767503   7.451  18.508  16.672  0.7153  0.5345  0.1572
 6137UDC     C867504   7.395  18.644  16.626 -0.2477 -1.0392  0.3966
 6137UDC     C967505   7.306  18.706  16.734 -0.9260 -0.3193  0.0011
 6137UDC    C1067506   7.159  18.691  16.708 -0.5259  0.5240 -0.4776
 6137UDC    C1167507   7.065  18.750  16.799 -1.0362 -0.4039  0.5766
 6138UDC     C167508   1.125  16.041   8.836  0.1298 -0.4149 -0.7453
 6138UDC     C267509   1.102  15.887   8.868 -0.3152 -0.6060 -0.1964
 6138UDC     C367510   1.105  15.784   8.756  0.2908  0.3789  0.0130
 6138UDC     C467511   1.001  15.799   8.634 -1.1557  0.6356  0.0003
 6138UDC     C567512   1.006  15.683   8.533 -0.8031 -0.9863  0.2304
 6138UDC     C667513   0.900  15.703   8.413  0.6440 -0.6308 -0.7379
 6138UDC     C767514   0.750  15.716   8.453 -0.5114  0.4634 -0.2286
 6138UDC     C867515   0.660  15.592   8.455 -0.2775  0.1207 -0.6335
 6138UDC     C967516   0.511  15.619   8.490 -0.3129 -0.1064 -0.4209
 6138UDC    C1067517   0.417  15.666   8.382 -0.6595  0.3237  0.8659
 6138UDC    C1167518   0.279  15.684   8.443 -0.9917 -0.7288 -0.1736
 6139UDC     C167519  14.485  11.365   2.647  1.4671 -1.3237  0.3099
 6139UDC     C267520  14.484  11.248   2.744  0.3063 -0.1763 -0.7645
 6139UDC     C367521  14.585  11.129   2.718  0.1778 -0.4338  0.8519
 6139UDC     C467522  14.543  11.053   2.590  0.0661 -0.2453 -0.0799
 6139UDC     C567523  14.436  10.945   2.613  0.7761 -0.7877 -0.4823
 6139UDC     C667524  14.406  10.847   2.497 -0.1599  1.0587  0.6756
 6139UDC     C767525  14.486  10.872   2.370 -1.4185  0.7055 -0.3300
 6139UDC     C867526  14.516  10.762   2.268 -0.5437  0.7350 -0.2201
 6139UDC     C967527  14.582  10.828   2.142  0.4994  0.8809 -0.2445
 6139UDC    C1067528  14.550  10.977   2.117  0.6944  0.9128  0.4616
 6139UDC    C1167529  14.618  11.034   1.989 -0.0842  0.6669  0.3183
 6140UDC     C167530   9.872   8.651  10.918 -0.8317  0.5122  0.3567
 6140UDC     C267531   9.746   8.733  10.913  0.7297  0.2066  0.1874
 6140UDC     C367532   9.736   8.800  10.769  0.1548  0.0175 -0.5894
 6140UDC     C467533   9.636   8.911  10.751 -0.6423 -0.3280  0.0320
 6140UDC     C567534   9.625   8.993  10.877 -0.6454 -0.5972 -0.4253
 6140UDC     C667535   9.749   9.079  10.928  0.6560 -0.5726  1.3617
 6140UDC     C767536   9.754   9.080  11.084  0.8830  0.3352 -0.8785
 6140UDC     C867537   9.824   9.191  11.169  0.4684  0.0580  0.6471
 6140UDC     C967538   9.718   9.297  11.190  0.5759  0.3666  0.0993
 6140UDC    C1067539   9.599   9.260  11.284 -0.3722 -0.7801 -0.5923
 6140UDC    C1167540   9.475   9.361  11.282  0.9878  0.6073  0.6360
 6141UDC     C167541   4.317  14.511   1.914  0.9084  0.1431  0.0567
 6141UDC     C267542   4.381  14.562   2.040  0.4707 -0.4425 -0.4488
 6141UDC     C367543   4.285  14.649   2.126 -0.3371  0.5662  0.2622
 6141UDC     C467544   4.340  14.690   2.263 -0.8551 -0.4092  0.3860
 6141UDC     C567545   4.351  14.577   2.366 -0.1795 -0.2807  1.1668
 6141UDC     C667546   4.440  14.613   2.481 -0.4739  0.3709 -0.0490
 6141UDC     C767547   4.588  14.585   2.446 -0.1615 -0.5261  0.2351
 6141UDC     C867548   4.691  14.645   2.544 -0.0779  0.0276 -0.9670
 6141UDC     C967549   4.665  14.603   2.689  1.1486  0.4458  0.8235
 6141UDC    C1067550   4.794  14.632   2.763  0.0114  0.2024  0.4969
 6141UDC    C1167551   4.773  14.598   2.912 -0.0216 -0.9024 -1.0930
 6142UDC     C167552  15.501  13.083  15.777 -0.1571  0.0301  0.6035
 6142UDC     C267553  15.535  13.051  15.921  0.0626 -0.4230  0.1839
 6142UDC     C367554  15.673  13.098  15.970 -0.1939  0.3446 -0.2519
 6142UDC     C467555  15.702  13.064  16.119  0.0090  0.7995 -0.0243
 6142UDC     C567556  15.616  13.129  16.231 -0.2311  0.1975 -0.6067
 6142UDC     C667557  15.646  13.040  16.354  1.0118 -0.6819 -0.3070
 6142UDC     C767558  15.801  13.060  16.397  0.6370  0.5264  0.6198
 6142UDC     C867559  15.834  13.208  16.395 -1.0821  0.5514  0.3338
 6142UDC     C967560  15.798  13.273  16.526  0.2131 -0.1991  0.3087
 6142UDC    C1067561  15.805  13.427  16.529  0.3517  0.9364 -0.8906
 6142UDC    C1167562  15.721  13.494  16.650 -1.0295  1.2676  0.4040
 6143UDC     C167563   7.314   9.248  14.100  0.9903 -0.5740 -0.7435
 6143UDC     C267564   7.315   9.399  14.115  0.1063  1.7410  0.0144
 6143UDC     C367565   7.442   9.459  14.181  1.3115 -0.2191  0.7822
 6143UDC     C467566   7.498   9.598  14.139  0.3125 -0.8243  0.3026
 6143UDC     C567567   7.642   9.632  14.191  0.1524  0.0035  0.3964
 6143UDC     C667568   7.734   9.679  14.079 -0.6572 -1.0592  0.3885
 6143UDC     C767569   7.685   9.817  14.020  0.8915 -1.0596  0.2327
 6143UDC     C867570   7.693   9.937  14.122  0.2618  0.2633  0.7109
 6143UDC     C967571   7.628  10.050  14.049 -0.1429 -0.6227  0.4145
 6143UDC    C1067572   7.704  10.119  13.933  0.2332  0.6638 -0.0440
 6143UDC    C1167573   7.631  10.249  13.896 -0.0683  0.2734 -0.3393
 6144UDC     C167574  18.030  13.862  11.717 -0.0719  1.1555 -0.0600
 6144UDC     C267575  17.991  13.801  11.854  0.5149  0.2035  0.2495
 6144UDC     C367576  18.074  13.681  11.900 -0.9504 -1.0789 -0.7564
 6144UDC     C467577  18.020  13.620  12.035 -0.2705 -0.0898  0.1322
 6144UDC     C567578  18.120  13.505  12.066  0.2159  0.0301  0.8270
 6144UDC     C667579  18.079  13.354  12.085 -0.5252  0.8823  0.2977
 6144UDC     C767580  18.013  13.294  11.956 -0.1017  0.6466 -0.7707
 6144UDC     C867581  17.982  13.144  11.951  0.3979  0.2460 -1.0696
 6144UDC     C967582  17.929  13.072  11.826 -0.5049  0.0434  0.2308
 6144UDC    C1067583  17.780  13.073  11.782  0.1225  0.6117 -0.1041
 6144UDC    C1167584  17.708  12.951  11.861 -1.1490 -1.2955 -0.0913
 6145UDC     C167585  19.275  10.086   5.534  1.1070 -0.7765 -0.3717
 6145UDC     C267586  19.254  10.019   5.395  1.1516 -0.9795  0.3431
 6145UDC     C367587  19.129   9.928   5.394 -0.1188  0.4489 -0.6147
 6145UDC     C467588  19.099   9.879   5.250 -1.0573 -0.0089 -0.9443
 6145UDC     C567589  18.984   9.776   5.235  1.5536 -0.0782 -0.0605
 6145UDC     C667590  19.029   9.638   5.247 -1.0185 -0.5585 -0.2823
 6145UDC     C767591  19.021   9.561   5.115  0.0224  0.1256  0.2730
 6145UDC     C867592  19.117   9.437   5.114  0.5645 -0.0986 -0.7128
 6145UDC     C967593  19.089   9.308   5.189  0.0779 -0.0181 -0.2027
 6145UDC    C1067594  19.174   9.185   5.143  0.1094  0.0826 -0.0503
 6145UDC    C1167595  19.244   9.120   5.260 -1.5533 -0.4085  0.6744
 6146UDC     C167596   3.322   1.445  19.312  0.1561  0.6782 -0.6031
 6146UDC     C267597   3.338   1.315  19.393  0.2083 -1.1649 -0.8264
 6146UDC     C367598   3.315   1.183  19.321 -0.6353  1.2262 -0.3164
 6146UDC     C467599   3.334   1.067  19.424  0.7910 -0.7222 -0.6955
 6146UDC     C567600   3.234   1.066  19.543 -0.1995 -0.3599 -0.6453
 6146UDC     C667601   3.231   0.936  19.621 -0.1269 -0.0083 -0.5051
 6146UDC     C767602   3.131   0.928  19.737  0.0511  0.5814  0.3663
 6146UDC     C867603   3.037   0.811  19.759 -0.0768  0.6335  0.9294
 6146UDC     C967604   2.954   0.805  19.889  0.0160  0.0467  0.1692
 6146UDC    C1067605   2.812   0.748  19.878  0.3247  0.3544  0.2874
 6146UDC    C1167606   2.754   0.799  19.746  0.6832 -1.0799 -0.4006
 6147UDC     C167607  13.435   2.068   7.027 -0.2367 -0.6012 -0.9279
 6147UDC     C267608  13.574   2.050   7.096 -0.5994 -0.5719  0.6424
 6147UDC     C367609  13.612   1.903   7.135 -1.0648  0.2416  0.6439
 6147UDC     C467610  13.589   1.794   7.027 -1.0441  0.2404 -0.5961
 6147UDC     C567611  13.694   1.799   6.919 -0.1036 -0.4999  0.1945
 6147UDC     C667612  13.633   1.774   6.780 -0.8990  0.1558 -0.9906
 6147UDC     C767613  13.745   1.768   6.677 -0.0876  0.6063 -0.0947
 6147UDC     C867614  13.682   1.767   6.534 -0.2693 -1.3736  0.3654
 6147UDC     C967615  13.648   1.628   6.471  1.0189 -0.3493 -0.8872
 6147UDC    C1067616  13.535   1.593   6.369 -0.0479 -0.7923 -1.6515
 6147UDC    C1167617  13.401   1.665   6.388  1.2984 -0.3453 -0.8050
 6148UDC     C167618   3.207   3.186   5.646 -0.6931 -0.6287 -0.2700
 6148UDC     C267619   3.132   3.310   5.620  0.5006 -0.8601  0.2664
 6148UDC     C367620   3.159   3.435   5.703  0.1533 -0.8324 -0.4282
 6148UDC     C467621   3.198   3.579   5.658 -0.3898  1.3861 -0.0999
 6148UDC     C567622   3.345   3.581   5.626 -0.5073  0.2375  0.0773
 6148UDC     C667623   3.373   3.584   5.471 -0.2814 -0.1312  0.6175
 6148UDC     C767624   3.481   3.480   5.421 -0.4946 -0.8464  0.1120
 6148UDC     C867625   3.618   3.495   5.477  0.7750  0.6343  0.5385
 6148UDC     C967626   3.702   3.363   5.487  0.3806 -0.0172 -0.4820
 6148UDC    C1067627   3.850   3.398   5.513  0.7635  0.3313 -0.7240
 6148UDC    C1167628   3.950   3.279   5.536  0.1645 -0.2069 -0.4039
 6149UDC     C167629   8.414   9.643  17.414 -0.3299  0.5374  0.3903
 6149UDC     C267630   8.395   9.555  17.544 -0.9536  0.8394  0.1569
 6149UDC     C367631   8.263   9.588  17.615 -0.5252  0.3279  0.6739
 6149UDC     C467632   8.285   9.504  17.745  0.0906  0.3804 -0.7137
 6149UDC     C567633   8.270   9.346  17.723 -1.4637 -1.0602  1.0893
 6149UDC     C667634   8.231   9.275  17.854 -0.1401  0.2568 -0.0801
 6149UDC     C767635   8.112   9.321  17.936 -0.4329  0.1751 -0.4014
 6149UDC     C867636   8.085   9.239  18.064 -0.0005  0.3568  0.3106
 6149UDC     C967637   8.187   9.255  18.181 -0.2120  0.0445  1.0636
 6149UDC    C1067638   8.185   9.386  18.252 -0.4350 -0.0631  1.2460
 6149UDC    C1167639   8.055   9.405  18.324  1.4738  0.3465  0.8671
 6150UDC     C167640  18.517   6.312   9.555 -0.1249  0.0714  0.6027
 6150UDC     C267641  18.457   6.444   9.609  0.3325 -0.2997 -0.5451
 6150UDC     C367642  18.359   6.530   9.532  0.4064 -0.4267  0.5455
 6150UDC     C467643  18.295   6.642   9.618  0.7529  0.2909 -0.7269
 6150UDC     C567644  18.387   6.722   9.705  0.9996  0.5378  0.1384
 6150UDC     C667645  18.324   6.774   9.828  0.0338  0.2320 -0.2092
 6150UDC     C767646  18.424   6.819   9.934 -0.7134 -0.2445 -0.3698
 6150UDC     C867647  18.506   6.735  10.033 -0.6325 -0.7034  0.0741
 6150UDC     C967648  18.419   6.632  10.100  0.2773  0.4182  0.0347
 6150UDC    C1067649  18.498   6.526  10.178 -0.1058  0.9832 -0.5448
 6150UDC    C1167650  18.559   6.582  10.309  0.3673  0.3177 -0.2450
 6151UDC     C167651   2.018  11.367  17.558  0.1772  0.0505 -0.2800
 6151UDC     C267652   2.095  11.241  17.619  0.2801 -0.5009 -0.5712
 6151UDC     C367653   2.245  11.228  17.593 -0.0178  0.3755 -0.5691
 6151UDC     C467654   2.249  11.199  17.448 -1.0740  0.3517 -0.0486
 6151UDC     C567655   2.380  11.218  17.374 -1.3532  0.3043 -1.4668
 6151UDC     C667656   2.477  11.331  17.432  0.1860  0.2990  1.2207
 6151UDC     C767657   2.410  11.467  17.439 -0.3418  1.5166 -0.4622
 6151UDC     C867658   2.380  11.527  17.300 -1.0768  0.9262  0.5690
 6151UDC     C967659   2.300  11.663  17.305  0.5367 -0.0514 -0.5373
 6151UDC    C1067660   2.290  11.750  17.181 -0.6099 -0.1249 -0.1959
 6151UDC    C1167661   2.166  11.845  17.187  0.0204  0.8089  0.1441
 6152UDC     C167662  14.004  10.657  14.766  0.3912 -1.2370 -0.3831
 6152UDC     C267663  13.902  10.743  14.691  0.0179 -0.0991 -0.1523
 6152UDC     C367664  13.926  10.726  14.539 -0.1861 -0.0820  1.1222
 6152UDC     C467665  13.841  10.830  14.462  0.3590 -0.3111 -0.3930
 6152UDC     C567666  13.843  10.965  14.532  0.5763  0.2669 -0.6048
 6152UDC     C667667  13.772  11.078  14.455  0.7776 -0.0180  0.3290
 6152UDC     C767668  13.842  11.089  14.317  1.1649 -0.7638  0.9058
 6152UDC     C867669  13.960  11.193  14.310 -0.3287  1.1286 -0.3306
 6152UDC     C967670  14.025  11.207  14.169  0.8406  0.0419 -1.1487
 6152UDC    C1067671  14.133  11.103  14.125  0.5107 -0.1099  0.3266
 6152UDC    C1167672  14.145  11.120  13.973  0.3723 -0.6110  0.7239
 6153UDC     C167673  19.451  12.338   4.682  0.0466 -0.9840  0.2085
 6153UDC     C267674  19.586  12.352   4.749 -0.5556 -0.0048  0.1172
 6153UDC     C367675  19.641  12.497   4.767  0.5297  0.3804  0.4110
 6153UDC     C467676  19.749  12.509   4.871 -0.7692 -0.0356 -0.5406
 6153UDC     C567677  19.864  12.418   4.834  0.2447 -0.4982 -0.6782
 6153UDC     C667678  19.937  12.481   4.711 -0.5612  0.1028  0.3993
 6153UDC     C767679  20.057  12.416   4.633  0.3427 -0.0380 -0.2737
 6153UDC     C867680  20.053  12.447   4.482 -0.7416  0.3499  0.1551
 6153UDC     C967681  20.190  12.490   4.411  0.4358 -0.3633  0.5215
 6153UDC    C1067682  20.307  12.396   4.411 -0.5112  0.6815 -0.0308
 6153UDC    C1167683  20.388  12.401   4.539 -0.7868  0.3814 -0.1615
 6154UDC     C167684   3.514   1.325   1.453  1.0129  0.1326  0.8812
 6154UDC     C267685   3.409   1.304   1.556  0.6500 -1.2186 -0.2960
 6154UDC     C367686   3.265   1.313   1.505  0.2051 -0.7086  0.9500
 6154UDC     C467687   3.264   1.345   1.355 -0.5562  0.8878  0.2207
 6154UDC     C567688   3.135   1.396   1.306 -0.7279  0.2090  0.2251
 6154UDC     C667689   3.183   1.479   1.183 -0.3601 -1.2708 -0.2309
 6154UDC     C767690   3.084   1.511   1.077  0.5539 -0.5793 -0.1201
 6154UDC     C867691   3.115   1.630   0.989  0.6492 -0.5017  0.2931
 6154UDC     C967692   3.198   1.621   0.855 -0.9396  0.8124 -0.1897
 6154UDC    C1067693   3.154   1.531   0.741  0.9344  0.0346 -0.3353
 6154UDC    C1167694   3.250   1.523   0.631 -0.8809  0.1045 -0.1413
 6155UDC     C167695  10.122   5.755  17.392 -0.1178  0.1800 -0.0658
 6155UDC     C267696  10.052   5.697  17.516 -0.4525  0.6914  0.3457
 6155UDC     C367697   9.894   5.709  17.500  0.4022 -0.0518 -0.5723
 6155UDC     C467698   9.811   5.658  17.613  0.3559  0.2155  0.6676
 6155UDC     C567699   9.669   5.719  17.611 -0.8484  0.1727 -0.4356
 6155UDC     C667700   9.600   5.726  17.469 -0.7876 -0.3774  0.7019
 6155UDC     C767701   9.458   5.781  17.467 -0.1735  0.3927  0.3754
 6155UDC     C867702   9.359   5.699  17.384 -0.5596  0.3277 -0.0464
 6155UDC     C967703   9.209   5.708  17.401 -0.3544  0.4987  1.6368
 6155UDC    C1067704   9.140   5.657  17.274  0.4361  0.5391  0.5848
 6155UDC    C1167705   9.005   5.595  17.305 -0.2910 -0.4341 -0.0296
 6156UDC     C167706   2.583   1.973  12.439  0.4383  0.4637 -0.2475
 6156UDC     C267707   2.647   1.841  12.463 -0.4171  0.6507  0.4197
 6156UDC     C367708   2.796   1.849  12.490 -0.4551 -0.2623  0.6667
 6156UDC     C467709   2.864   1.860  12.354  1.0587  0.2367  1.0111
 6156UDC     C567710   2.822   1.744  12.249  0.2336  0.2256  0.2192
 6156UDC     C667711   2.893   1.730  12.111  0.2717  0.6846  0.0156
 6156UDC     C767712   2.912   1.582  12.071  0.7091 -0.0330  0.5063
 6156UDC     C867713   2.821   1.564  11.948  0.3998  0.3290  0.4888
 6156UDC     C967714   2.896   1.582  11.811 -0.1374  2.1161 -0.8889
 6156UDC    C1067715   2.846   1.699  11.731 -0.2467  0.0835  0.4201
 6156UDC    C1167716   2.710   1.688  11.676  0.9536 -0.8613  0.3387
 6157UDC     C167717   0.832   5.679   3.154  0.6747 -0.5825  0.2307
 6157UDC     C267718   0.802   5.805   3.239 -0.7136 -0.3466  0.8671
 6157UDC     C367719   0.656   5.831   3.265  0.9969 -1.2125  0.1610
 6157UDC     C467720   0.605   5.862   3.129  0.7632  0.0542 -0.1596
 6157UDC     C567721   0.456   5.867   3.093  0.0457  0.0456 -0.2772
 6157UDC     C667722   0.435   5.902   2.945  0.9414  0.2529  0.2012
 6157UDC     C767723   0.290   5.890   2.889 -0.8199  0.4280  0.7060
 6157UDC     C867724   0.277   5.905   2.730  0.2708 -0.3360 -0.8263
 6157UDC     C967725   0.174   5.826   2.656  0.2941 -0.6432  0.0229
 6157UDC    C1067726   0.174   5.899   2.523 -0.2310  0.0277 -0.0935
 6157UDC    C1167727   0.325   5.887   2.467 -0.0660  0.3795  0.1505
 6158UDC     C167728   1.067   8.943  19.232  0.5270  0.7045  0.1743
 6158UDC     C267729   0.987   8.919  19.367 -0.0011  0.1059  0.8012
 6158UDC     C367730   0.911   8.792  19.365 -0.1908 -0.1205  0.1595
 6158UDC     C467731   0.848   8.774  19.507  0.6667 -0.5957  0.5436
 6158UDC     C567732   0.730   8.675  19.516 -0.2637 -0.7156 -0.2701
 6158UDC     C667733   0.702   8.633  19.658  0.2618  0.0529  0.8897
 6158UDC     C767734   0.694   8.750  19.767 -0.1935 -0.1980  0.3232
 6158UDC     C867735   0.616   8.873  19.740 -0.0611  0.3700 -0.1017
 6158UDC     C967736   0.647   8.998  19.824  0.0582 -0.7548  0.1848
 6158UDC    C1067737   0.800   9.034  19.848  0.3405  1.1900  0.3782
 6158UDC    C1167738   0.854   9.105  19.970 -0.5097 -0.9179 -0.9603
 6159UDC     C167739   9.474  11.848   8.654  0.4414  0.0091  0.0210
 6159UDC     C267740   9.575  11.886   8.551 -0.1576  0.3651 -0.3213
 6159UDC     C367741   9.589  12.041   8.543  0.1620  0.0784 -0.8520
 6159UDC     C467742   9.730  12.085   8.552  0.3155 -0.0401 -0.4301
 6159UDC     C567743   9.749  12.243   8.560 -1.1535  1.3818 -0.4249
 6159UDC     C667744   9.892  12.298   8.592  0.2833  0.3802  0.0079
 6159UDC     C767745   9.897  12.458   8.592 -0.3927  0.5092 -0.6100
 6159UDC     C867746   9.788  12.531   8.519  0.4474  0.3079  0.8902
 6159UDC     C967747   9.790  12.688   8.525 -0.2942  0.1031 -0.6908
 6159UDC    C1067748   9.692  12.755   8.430  0.8204 -0.0653 -0.2983
 6159UDC    C1167749   9.631  12.890   8.481  0.6965  0.7972  0.1800
 6160UDC     C167750   7.062   0.300   1.329  1.0569 -0.4399  0.3291
 6160UDC     C267751   7.129   0.237   1.454  0.2020 -1.1956 -0.5668
 6160UDC     C367752   7.083   0.296   1.594  0.4714 -0.2476  0.5581
 6160UDC     C467753   7.175   0.416   1.642  0.0737 -0.7740 -0.0439
 6160UDC     C567754   7.121   0.446   1.787  0.2361  0.6722 -0.1918
 6160UDC     C667755   7.131   0.599   1.830 -0.2214 -0.2441 -1.0076
 6160UDC     C767756   7.011   0.637   1.912  0.3253  0.4731  0.3118
 6160UDC     C867757   6.988   0.783   1.931 -0.4653 -0.4502 -0.3652
 6160UDC     C967758   6.863   0.832   2.004  0.6623  0.4716  0.1491
 6160UDC    C1067759   6.851   0.982   2.006  0.9546  0.1569 -0.9758
 6160UDC    C1167760   6.862   1.050   1.873  0.3964 -0.0779  0.9773
 6161UDC     C167761  11.164  13.407  19.724  0.2518 -0.3490 -0.8223
 6161UDC     C267762  11.205  13.324  19.603 -0.6269 -0.1078 -0.1541
 6161UDC     C367763  11.110  13.254  19.502 -0.2180 -0.5641  0.1872
 6161UDC     C467764  11.186  13.197  19.383  0.1428 -0.3318 -0.1925
 6161UDC     C567765  11.143  13.063  19.324 -0.0781  0.5396  0.1391
 6161UDC     C667766  11.157  12.959  19.431 -0.6775  0.0021 -0.6095
 6161UDC     C767767  11.042  12.920  19.518  0.2268 -1.0709 -0.8223
 6161UDC     C867768  10.900  12.893  19.457  0.8089  0.4102 -0.4842
 6161UDC     C967769  10.816  12.834  19.571  0.7884  0.2064  0.3178
 6161UDC    C1067770  10.837  12.925  19.692 -0.1053 -0.1964  0.1720
 6161UDC    C1167771  10.778  13.063  19.674 -0.6989 -0.7405 -0.5337
 6162UDC     C167772  13.798   9.058   4.484  0.2670  0.6321 -0.1994
 6162UDC     C267773  13.946   9.099   4.477  0.0305  0.3543 -0.1742
 6162UDC     C367774  14.007   9.106   4.335  1.1590 -0.2380 -0.2216
 6162UDC     C467775  14.149   9.166   4.334  0.0266  0.3831  0.7919
 6162UDC     C567776  14.206   9.161   4.185 -0.7115 -0.6194  0.0089
 6162UDC     C667777  14.363   9.163   4.179  0.0940  0.4199  0.0524
 6162UDC     C767778  14.410   9.270   4.075 -0.5348  0.0016 -0.6803
 6162UDC     C867779  14.399   9.220   3.931  0.4108  0.8869 -1.1130
 6162UDC     C967780  14.307   9.306   3.845  0.0398  0.3359 -0.7577
 6162UDC    C1067781  14.369   9.439   3.792 -0.3291  0.0503 -0.5706
 6162UDC    C1167782  14.273   9.530   3.715 -1.5972 -1.4196  0.7633
 6163UDC     C167783   1.080   6.035  19.199  0.6705  0.1663 -0.7841
 6163UDC     C267784   1.124   5.971  19.067 -0.5327 -0.7489 -0.4411
 6163UDC     C367785   1.240   5.869  19.079  0.8251  1.1590  0.6302
 6163UDC     C467786   1.306   5.856  18.944 -0.2237 -1.0241  0.0883
 6163UDC     C567787   1.459   5.815  18.950 -0.0617  0.9494  0.5787
 6163UDC     C667788   1.520   5.754  18.823 -0.2296  1.3410  0.5333
 6163UDC     C767789   1.659   5.685  18.845  1.0080  0.5079 -0.0306
 6163UDC     C867790   1.691   5.627  18.708  0.4644  0.2308 -0.2259
 6163UDC     C967791   1.580   5.534  18.652 -0.5728 -0.1589  0.5149
 6163UDC    C1067792   1.603   5.398  18.720  0.9324 -0.7667  0.2145
 6163UDC    C1167793   1.681   5.313  18.618  0.0912  0.0818  0.2350
 6164UDC     C167794   2.894  19.340   0.447 -0.9781 -0.7776  0.5289
 6164UDC     C267795   2.872  19.484   0.490  0.0470 -0.0531  0.4467
 6164UDC     C367796   2.963  19.579   0.408 -0.5683  0.2861 -0.9986
 6164UDC     C467797   2.893  19.656   0.293 -0.6875 -1.4210  0.6941
 6164UDC     C567798   3.002  19.725   0.211 -0.9169 -0.3676 -0.3796
 6164UDC     C667799   2.950  19.786   0.081 -0.9923 -0.6781  0.4651
 6164UDC     C767800   2.896  19.673   0.003 -0.3188 -0.9102 -0.5618
 6164UDC     C867801   3.010  19.585  -0.030 -0.7637  0.2540  0.2234
 6164UDC     C967802   2.982  19.472  -0.128 -0.4483  0.8696  0.1086
 6164UDC    C1067803   2.888  19.499  -0.249 -0.0933 -0.9295  0.0752
 6164UDC    C1167804   2.810  19.381  -0.309 -1.2262  0.5174 -0.9889
 6165UDC     C167805  16.819   0.170  19.331  0.3681 -0.6071  0.8423
 6165UDC     C267806  16.876   0.315  19.318 -0.1364  0.0349 -0.1980
 6165UDC     C367807  16.817   0.429  19.405  0.2294  0.2309  0.1073
 6165UDC     C467808  16.671   0.444  19.393  0.2742  0.2530  0.0275
 6165UDC     C567809  16.614   0.574  19.445 -0.8838 -0.9618 -0.0600
 6165UDC     C667810  16.466   0.600  19.428 -0.2576 -1.0828  0.0794
 6165UDC     C767811  16.421   0.749  19.440  1.0612 -0.5795 -0.4031
 6165UDC     C867812  16.448   0.831  19.575  0.1061  0.1883  0.6669
 6165UDC     C967813  16.423   0.982  19.562  0.1293  0.9911  0.0622
 6165UDC    C1067814  16.526   1.049  19.473 -0.2804 -1.9748 -0.1336
 6165UDC    C1167815  16.674   1.030  19.511  0.1385 -0.1728  0.2759
 6166UDC     C167816   4.892   2.635  18.800  0.0069 -0.4655  0.3828
 6166UDC     C267817   5.037   2.675  18.817 -1.0848  0.2508  0.2419
 6166UDC     C367818   5.120   2.563  18.872  0.4566  0.2853 -0.6220
 6166UDC     C467819   5.259   2.590  18.939 -1.3310  1.2798  0.2745
 6166UDC     C567820   5.341   2.690  18.861  1.7071 -0.4094 -0.4656
 6166UDC     C667821   5.456   2.753  18.939  0.4324  0.0707 -0.4086
 6166UDC     C767822   5.419   2.881  19.013 -0.1614 -0.2278  0.3641
 6166UDC     C867823   5.535   2.983  19.006  0.8231  1.6358 -0.2215
 6166UDC     C967824   5.478   3.112  19.071  1.0021  0.3277  0.2614
 6166UDC    C1067825   5.571   3.230  19.034  0.2799 -0.4985  0.9616
 6166UDC    C1167826   5.584   3.259  18.881 -0.0481 -0.4322  0.0787
 6167UDC     C167827   0.756   3.542   8.141  1.0454  0.3583 -0.0783
 6167UDC     C267828   0.780   3.529   8.288  0.1598 -0.1788  0.6484
 6167UDC     C367829   0.658   3.528   8.381 -1.1614  0.8969  0.1676
 6167UDC     C467830   0.685   3.525   8.530 -0.4083 -0.0416  0.2063
 6167UDC     C567831   0.560   3.541   8.615  0.9356 -0.1515  0.1571
 6167UDC     C667832   0.569   3.590   8.763 -0.2979  0.6229 -0.3518
 6167UDC     C767833   0.617   3.500   8.881 -0.0358  0.0243  0.0211
 6167UDC     C867834   0.599   3.554   9.022 -0.0921 -0.2413  0.7611
 6167UDC     C967835   0.469   3.492   9.081 -0.2357 -0.4987  0.4878
 6167UDC    C1067836   0.447   3.337   9.059  0.2094 -0.0225  0.0439
 6167UDC    C1167837   0.513   3.229   9.153  0.3356 -0.5719 -0.4143
 6168UDC     C167838  12.742  18.063  12.648 -0.4493  0.3823 -0.2869
 6168UDC     C267839  12.860  18.003  12.558  0.4475 -0.2426  0.8717
 6168UDC     C367840  12.797  17.897  12.463  0.6780  0.2131  0.2732
 6168UDC     C467841  12.903  17.789  12.425  1.0318 -0.7563 -0.3725
 6168UDC     C567842  12.823  17.656  12.401  1.2201  0.2710 -0.1091
 6168UDC     C667843  12.887  17.537  12.334  1.5017 -0.6640  1.0649
 6168UDC     C767844  12.879  17.405  12.416 -0.7926 -0.3361 -0.0977
 6168UDC     C867845  12.743  17.350  12.460 -0.9989 -0.7908 -0.2270
 6168UDC     C967846  12.758  17.230  12.551 -0.4565  0.9881  0.4184
 6168UDC    C1067847  12.766  17.084  12.487  0.5698  0.0279  0.7693
 6168UDC    C1167848  12.726  16.972  12.574  0.3481 -0.3806 -0.1557
 6169UDC     C167849  16.669   5.154  15.468  0.5334  1.0759  0.1315
 6169UDC     C267850  16.770   5.237  15.548  0.1182  0.5410  0.6321
 6169UDC     C367851  16.695   5.316  15.657 -0.0891 -0.6180  0.0864
 6169UDC     C467852  16.760   5.442  15.715 -0.5650  0.1992 -0.4435
 6169UDC     C567853  16.697   5.477  15.854 -0.0539 -0.0035  0.7259
 6169UDC     C667854  16.704   5.625  15.894  0.4840  0.6477 -0.4447
 6169UDC     C767855  16.674   5.645  16.048  0.1690  0.5792  0.1578
 6169UDC     C867856  16.699   5.781  16.103  0.0540 -0.6619 -0.3523
 6169UDC     C967857  16.844   5.827  16.099  0.8110  0.0598  0.6915
 6169UDC    C1067858  16.876   5.964  16.155  0.3683  0.0008 -0.5832
 6169UDC    C1167859  17.014   5.974  16.221  0.5177 -0.7302 -0.1206
 6170UDC     C167860  19.873   0.443  18.425 -1.1090 -0.1583 -0.7606
 6170UDC     C267861  19.762   0.365  18.505 -0.2575 -0.5955 -1.1387
 6170UDC     C367862  19.787   0.377  18.652  1.2441 -0.4330 -0.0971
 6170UDC     C467863  19.672   0.325  18.739  0.5400 -1.6735  0.4169
 6170UDC     C567864  19.714   0.197  18.790  0.1589  0.3620 -0.3845
 6170UDC     C667865  19.820   0.201  18.902  0.8678 -0.2165  0.9148
 6170UDC     C767866  19.748   0.214  19.032 -0.4579 -0.0107 -0.0819
 6170UDC     C867867  19.817   0.264  19.160 -0.9202  1.2044  0.6660
 6170UDC     C967868  19.965   0.233  19.156 -0.9964  0.2907  0.2232
 6170UDC    C1067869  20.023   0.113  19.226 -0.6759 -0.4740 -0.1829
 6170UDC    C1167870  20.174   0.097  19.231 -0.2574 -1.1841  0.6477
 6171UDC     C167871  11.008   1.720   2.434  0.5220 -0.9338 -0.0003
 6171UDC     C267872  11.122   1.803   2.503  0.0774 -0.4370  0.9012
 6171UDC     C367873  11.116   1.797   2.651 -0.2548  0.5649  0.0034
 6171UDC     C467874  10.979   1.786   2.714 -0.1447 -0.1716 -0.8622
 6171UDC     C567875  10.988   1.811   2.865  0.8010  1.3907 -0.9804
 6171UDC     C667876  10.884   1.729   2.944 -0.1047 -0.0447 -1.1030
 6171UDC     C767877  10.912   1.685   3.092 -0.5300  0.8538  0.6404
 6171UDC     C867878  10.773   1.633   3.148 -0.0554 -0.2011 -0.6743
 6171UDC     C967879  10.778   1.576   3.291  0.9297  0.8628 -0.0091
 6171UDC    C1067880  10.799   1.666   3.413 -0.5630  0.0145  0.1609
 6171UDC    C1167881  10.683   1.756   3.472  0.0362 -1.3609 -0.0164
 6172UDC     C167882  17.064   5.152  17.668 -0.3395  0.2440  0.4306
 6172UDC     C267883  17.115   5.061  17.560  1.3209  0.2913 -0.0948
 6172UDC     C367884  17.029   5.039  17.426 -0.8252 -0.2430  0.1300
 6172UDC     C467885  17.056   4.894  17.371 -0.7640  0.2346 -0.7015
 6172UDC     C567886  16.995   4.863  17.237 -0.4158  0.7888  0.0081
 6172UDC     C667887  16.854   4.915  17.221 -0.4911 -0.1289  0.4300
 6172UDC     C767888  16.773   4.858  17.100  1.3239 -0.4306 -0.3929
 6172UDC     C867889  16.753   4.713  17.120  0.1294 -0.9824  0.1512
 6172UDC     C967890  16.736   4.655  16.978 -1.1946 -0.2738 -1.1686
 6172UDC    C1067891  16.751   4.506  17.017 -0.3583  0.6368  1.4472
 6172UDC    C1167892  16.680   4.444  17.137 -0.4650 -0.0217  0.9261
 6173UDC     C167893   9.639  16.071   3.062  0.3005 -0.4621 -0.5212
 6173UDC     C267894   9.633  16.057   2.911  0.6957 -0.4671 -0.2150
 6173UDC     C367895   9.743  16.124   2.815  0.1544  0.2968 -0.3461
 6173UDC     C467896   9.711  16.269   2.790 -1.0206  0.1699  1.6042
 6173UDC     C567897   9.769  16.335   2.666 -0.1763  0.7930  0.0020
 6173UDC     C667898   9.677  16.454   2.626 -0.1990 -1.5396 -0.3039
 6173UDC     C767899   9.650  16.567   2.734 -0.8634  0.0737  0.0264
 6173UDC     C867900   9.543  16.665   2.680  0.4339  0.8922 -0.3706
 6173UDC     C967901   9.473  16.736   2.794 -0.4752 -0.3313 -0.4797
 6173UDC    C1067902   9.405  16.638   2.895 -0.5054 -0.2265 -0.2338
 6173UDC    C1167903   9.258  16.627   2.843  0.5557 -0.1924  0.8675
 6174UDC     C167904  10.029  10.069  11.695  0.7537 -0.0744  0.2655
 6174UDC     C267905   9.911  10.031  11.599  0.2383  0.3197  0.2764
 6174UDC     C367906   9.894   9.881  11.614  0.3002 -0.3707 -0.0613
 6174UDC     C467907   9.784   9.807  11.542  0.3719  0.2925  0.2090
 6174UDC     C567908   9.758   9.841  11.393  0.0399  1.4033  0.5293
 6174UDC     C667909   9.690   9.731  11.311  0.5963  0.1673 -0.1789
 6174UDC     C767910   9.539   9.715  11.357  0.3846 -0.4188  0.7358
 6174UDC     C867911   9.453   9.838  11.339 -0.5427 -0.2614 -0.0050
 6174UDC     C967912   9.329   9.778  11.266  0.9197  0.0105 -0.8290
 6174UDC    C1067913   9.270   9.878  11.165  0.3409 -0.7334  0.1287
 6174UDC    C1167914   9.130   9.833  11.123  0.2824 -0.2395  1.4643
 6175UDC     C167915   8.672  17.247  13.806  0.2639  1.1941  0.1935
 6175UDC     C267916   8.680  17.245  13.961 -0.4053  0.2838 -0.4037
 6175UDC     C367917   8.810  17.285  14.023 -0.7935 -1.1249 -0.4000
 6175UDC     C467918   8.932  17.194  14.011  0.1442 -0.6246  0.2018
 6175UDC     C567919   9.049  17.267  14.073  0.4910 -0.0498  0.2946
 6175UDC     C667920   9.130  17.363  13.980  0.4220 -0.5659  1.1798
 6175UDC     C767921   9.270  17.401  14.026  0.2467 -0.1871  0.7545
 6175UDC     C867922   9.374  17.300  14.080  0.3916  0.3797  0.7689
 6175UDC     C967923   9.459  17.327  14.202  0.0724 -1.2989 -1.1660
 6175UDC    C1067924   9.381  17.348  14.336 -0.3067 -0.6442 -0.5515
 6175UDC    C1167925   9.438  17.295  14.472 -0.9525  0.1306  1.1173
 6176UDC     C167926  13.464  10.263   3.437 -1.1415  0.1375 -0.3793
 6176UDC     C267927  13.347  10.313   3.357 -0.4430  1.0758  0.0383
 6176UDC     C367928  13.256  10.222   3.274 -0.4875  0.1339  0.6330
 6176UDC     C467929  13.131  10.168   3.348  0.4158 -0.5974  0.2390
 6176UDC     C567930  13.054  10.048   3.301  1.4412 -0.6909  0.2814
 6176UDC     C667931  12.942  10.004   3.389 -0.3461 -0.0710 -0.6311
 6176UDC     C767932  12.841   9.903   3.338  0.0939 -0.1785 -0.2837
 6176UDC     C867933  12.755   9.956   3.221 -0.3951 -0.3708 -0.8224
 6176UDC     C967934  12.664  10.065   3.267 -0.3688 -0.1294  0.3349
 6176UDC    C1067935  12.556  10.013   3.364 -0.5087  0.1362 -0.1875
 6176UDC    C1167936  12.442  10.110   3.386  0.0238 -0.4249  0.2705
 6177UDC     C167937  10.692   5.214  15.321  0.7808  1.5519  0.6490
 6177UDC     C267938  10.777   5.277  15.430  0.2196  0.3134 -0.2985
 6177UDC     C367939  10.925   5.310  15.395 -0.2511  0.3318 -0.0269
 6177UDC     C467940  10.964   5.462  15.385  0.5981  0.4424 -0.1479
 6177UDC     C567941  11.115   5.483  15.374 -0.0863  0.2202  0.4777
 6177UDC     C667942  11.145   5.638  15.381 -0.6520 -0.0344  0.5110
 6177UDC     C767943  11.070   5.740  15.292 -0.4875 -0.6396  0.3345
 6177UDC     C867944  11.076   5.888  15.334  1.2832 -1.1264 -0.8862
 6177UDC     C967945  10.951   5.956  15.258  0.3130  0.6045 -0.8753
 6177UDC    C1067946  10.905   6.092  15.306 -1.0082  0.3300  0.2160
 6177UDC    C1167947  11.016   6.190  15.253 -0.3827 -1.5198  0.9492
 6178UDC     C167948   3.717  17.683  17.813 -0.6162  0.1874  0.6101
 6178UDC     C267949   3.782  17.546  17.799  0.1357 -0.1746 -0.0003
 6178UDC     C367950   3.930  17.561  17.829 -0.7918 -0.5188  0.4367
 6178UDC     C467951   3.999  17.428  17.805 -0.6542  0.5816  0.6929
 6178UDC     C567952   4.008  17.314  17.906 -0.0558 -0.5903  0.5520
 6178UDC     C667953   4.063  17.179  17.874  0.0441  0.6946 -0.6810
 6178UDC     C767954   3.990  17.067  17.954 -1.2740 -1.0714  0.4858
 6178UDC     C867955   4.071  16.935  17.989  1.6131  0.1053 -0.1345
 6178UDC     C967956   3.993  16.874  18.103  0.4888  0.2630 -0.0440
 6178UDC    C1067957   4.037  16.740  18.163 -0.2759  0.1227 -0.1612
 6178UDC    C1167958   4.188  16.742  18.206  1.0952 -0.3358 -0.3057
 6179UDC     C167959   1.612   4.352   1.668 -1.1872 -1.4419  0.5428
 6179UDC     C267960   1.623   4.345   1.821 -0.3481 -0.0016  0.3882
 6179UDC     C367961   1.772   4.366   1.868 -0.2386 -1.3910 -0.3879
 6179UDC     C467962   1.766   4.429   2.009  0.2259 -0.0577 -0.0315
 6179UDC     C567963   1.888   4.525   2.012  0.4182  0.1028  0.5441
 6179UDC     C667964   1.870   4.651   1.929 -0.5055 -0.2574 -0.4853
 6179UDC     C767965   1.964   4.775   1.950 -0.4092  1.9063 -0.2607
 6179UDC     C867966   2.013   4.809   2.094 -0.3967 -0.5549 -0.1402
 6179UDC     C967967   2.070   4.955   2.104  0.1836 -0.9610 -0.5203
 6179UDC    C1067968   2.155   4.973   2.234  0.3410 -0.9114  0.0336
 6179UDC    C1167969   2.228   5.108   2.231 -0.8028  0.1773  0.5616
 6180UDC     C167970  18.963  18.880   6.973 -0.6310 -0.7267  0.1459
 6180UDC     C267971  18.968  18.786   7.092 -0.3118  0.8136  0.2026
 6180UDC     C367972  18.843  18.700   7.118  0.0352  1.9700 -0.3089
 6180UDC     C467973  18.726  18.793   7.160 -0.1765 -0.3327 -0.5632
 6180UDC     C567974  18.586  18.728   7.153  0.1005  0.0548 -0.2487
 6180UDC     C667975  18.558  18.656   7.288  0.4694  0.4415 -0.2821
 6180UDC     C767976  18.597  18.507   7.266  0.3966 -0.1712 -0.1379
 6180UDC     C867977  18.587  18.426   7.396  0.0200  0.3605  0.4268
 6180UDC     C967978  18.661  18.290   7.385 -0.7171 -0.7645 -0.3045
 6180UDC    C1067979  18.640  18.205   7.511 -0.0859 -0.8541  0.1521
 6180UDC    C1167980  18.520  18.266   7.582 -1.1490 -0.3070 -0.1085
 6181UDC     C167981   7.163  16.753  14.843  0.2887  0.1226  1.5437
 6181UDC     C267982   7.067  16.666  14.927  0.6021 -0.7483 -0.3493
 6181UDC     C367983   6.962  16.598  14.838  0.1867  0.4000  0.5371
 6181UDC     C467984   6.827  16.677  14.831 -0.1937  0.9631  0.3121
 6181UDC     C567985   6.708  16.623  14.742  0.3589 -0.0206  0.0200
 6181UDC     C667986   6.600  16.735  14.736 -0.7113 -0.5666 -0.0589
 6181UDC     C767987   6.487  16.716  14.637  0.4327  0.0485 -0.2057
 6181UDC     C867988   6.390  16.830  14.608 -0.5765 -0.7573  1.2544
 6181UDC     C967989   6.426  16.926  14.499 -0.6761  0.4325  0.6067
 6181UDC    C1067990   6.302  17.019  14.483  0.2880 -0.6370  0.1980
 6181UDC    C1167991   6.178  16.954  14.417  0.6240  0.0127  0.1432
 6182UDC     C167992   3.460  16.779  15.428  0.5479  0.1426  0.1377
 6182UDC     C267993   3.597  16.803  15.367 -0.4229  0.5080 -0.4117
 6182UDC     C367994   3.638  16.950  15.351 -0.2024 -0.6323  0.7090
 6182UDC     C467995   3.768  16.970  15.275  0.4339 -0.3732 -0.2347
 6182UDC     C567996   3.905  16.958  15.353  0.2551 -0.4815 -0.5658
 6182UDC     C667997   3.911  17.040  15.488  0.8123  1.0243  0.3325
 6182UDC     C767998   3.917  17.189  15.456 -1.0459 -0.1073 -0.2497
 6182UDC     C867999   4.043  17.249  15.527 -0.4462 -0.3456  0.1086
 6182UDC     C968000   4.045  17.403  15.510 -0.5979  0.3958 -0.4289
 6182UDC    C1068001   4.175  17.465  15.542 -0.3441  0.5329  0.2569
 6182UDC    C1168002   4.253  17.380  15.642 -0.4447  0.5639  0.0649
 6183UDC     C168003  12.705   4.287   5.509  0.8580 -0.4643  1.1961
 6183UDC     C268004  12.795   4.240   5.383 -1.0776 -1.3885 -0.4526
 6183UDC     C368005  12.932   4.303   5.349 -0.1044  0.1758  0.4200
 6183UDC     C468006  12.997   4.237   5.226 -0.5527  0.1416 -0.1951
 6183UDC     C568007  13.150   4.201   5.239  0.1141 -0.6797 -0.7956
 6183UDC     C668008  13.172   4.091   5.336 -0.1389 -0.3417 -0.3294
 6183UDC     C768009  13.319   4.066   5.382 -0.0056 -0.1969 -0.8130
 6183UDC     C868010  13.341   4.095   5.533 -0.1192 -0.6100  0.2278
 6183UDC     C968011  13.478   4.104   5.601 -0.3385 -0.4686 -0.5832
 6183UDC    C1068012  13.491   4.237   5.684 -0.3246  1.4488  0.8885
 6183UDC    C1168013  13.362   4.305   5.732 -0.6894  0.4490 -1.5917
 6184UDC     C168014   2.166   2.608   7.149 -0.7044  0.0875  0.7382
 6184UDC     C268015   2.164   2.485   7.229 -0.2917  0.4310  0.0513
 6184UDC     C368016   2.076   2.498   7.351  0.6108 -0.3754 -0.6599
 6184UDC     C468017   2.047   2.365   7.430 -0.7961 -0.3781 -0.0931
 6184UDC     C568018   1.919   2.379   7.513  1.2626 -0.1039  0.8260
 6184UDC     C668019   1.791   2.333   7.436  0.1060  0.1116 -0.7838
 6184UDC     C768020   1.669   2.277   7.516  0.8326  0.2830  0.1086
 6184UDC     C868021   1.524   2.263   7.464  0.6980  0.8769  0.6192
 6184UDC     C968022   1.423   2.190   7.558  0.1006  0.3371  0.0445
 6184UDC    C1068023   1.275   2.228   7.525  0.7484  0.0886  0.5172
 6184UDC    C1168024   1.253   2.330   7.414 -1.3836  0.5967 -0.5289
 6185UDC     C168025  19.445  11.273  16.914 -1.0465 -0.2061  0.5646
 6185UDC     C268026  19.399  11.408  16.852 -0.3895  0.5680 -0.8323
 6185UDC     C368027  19.447  11.462  16.713  0.8072 -0.5328  0.4344
 6185UDC     C468028  19.434  11.614  16.691 -0.9934 -0.4838 -0.5307
 6185UDC     C568029  19.310  11.652  16.617  0.2941  0.3529 -0.9053
 6185UDC     C668030  19.289  11.790  16.556  0.2768  0.5010 -0.2425
 6185UDC     C768031  19.146  11.832  16.504 -1.1250  0.0975 -2.1066
 6185UDC     C868032  19.126  11.949  16.414  0.8373 -0.8125  0.6745
 6185UDC     C968033  18.980  11.952  16.354  0.2902  0.1110 -0.5229
 6185UDC    C1068034  18.960  12.042  16.234 -0.2436 -0.5954 -0.4529
 6185UDC    C1168035  19.092  12.030  16.155  0.1045 -0.2509 -0.0401
 6186UDC     C168036  19.951   5.728  10.424  0.3045  0.4266 -0.3435
 6186UDC     C268037  19.847   5.757  10.318  0.0432  0.0409 -1.0530
 6186UDC     C368038  19.775   5.618  10.310  0.4955  0.0941  0.1620
 6186UDC     C468039  19.836   5.508  10.233  0.5050 -0.3637  0.0762
 6186UDC     C568040  19.727   5.475  10.126  0.3986  0.2365  0.2201
 6186UDC     C668041  19.580   5.476  10.174  0.3719 -0.1153 -0.2496
 6186UDC     C768042  19.474   5.452  10.057 -0.0309 -0.7191  0.1260
 6186UDC     C868043  19.337   5.533  10.042  0.9962  0.1483  0.6656
 6186UDC     C968044  19.239   5.534  10.165  0.2658 -0.1201  0.1075
 6186UDC    C1068045  19.203   5.394  10.225 -0.3126 -0.3404  0.1194
 6186UDC    C1168046  19.278   5.348  10.347 -0.7818  0.9277  0.5789
 6187UDC     C168047   7.756  13.488  14.732 -0.2239 -0.9307  0.1884
 6187UDC     C268048   7.702  13.349  14.696  0.5470  0.2674  0.7952
 6187UDC     C368049   7.795  13.258  14.775 -0.6156 -0.0647 -0.0326
 6187UDC     C468050   7.778  13.244  14.922 -0.4608  0.4287 -0.9511
 6187UDC     C568051   7.890  13.174  15.005  0.7482  0.4806  0.7225
 6187UDC     C668052   8.038  13.227  15.004  0.8557 -0.3281 -0.0876
 6187UDC     C768053   8.072  13.347  15.093  0.2552 -0.0998 -0.2171
 6187UDC     C868054   8.223  13.368  15.118 -0.7370  0.5506  0.5348
 6187UDC     C968055   8.274  13.508  15.154 -0.8233 -0.4719 -0.2328
 6187UDC    C1068056   8.382  13.544  15.053  0.8544 -0.7257 -1.1018
 6187UDC    C1168057   8.383  13.695  15.032 -0.0424  0.6423  1.2285
 6188UDC     C168058  11.628   8.874  12.269  1.1926  0.0463  1.1442
 6188UDC     C268059  11.490   8.888  12.195 -0.9819 -0.1438  0.7765
 6188UDC     C368060  11.396   8.773  12.216  1.3362  1.2968  0.3337
 6188UDC     C468061  11.328   8.796  12.354  0.0989  0.5243  1.2948
 6188UDC     C568062  11.239   8.924  12.351  0.3583  0.6651 -0.0186
 6188UDC     C668063  11.092   8.908  12.417 -0.6484 -0.0306 -0.3088
 6188UDC     C768064  11.104   8.831  12.551  0.6296 -1.2195  0.0025
 6188UDC     C868065  10.982   8.885  12.623 -0.5957 -0.9880 -0.4834
 6188UDC     C968066  11.022   8.999  12.717  0.4676  0.4820  0.1290
 6188UDC    C1068067  10.919   9.113  12.693 -0.0677  0.9468 -0.0385
 6188UDC    C1168068  10.941   9.221  12.790  0.8542  0.8999 -0.8957
 6189UDC     C168069  12.055  10.497   4.135 -1.0923 -0.9136 -1.0915
 6189UDC     C268070  11.935  10.594   4.111 -0.7722 -0.2590 -0.7927
 6189UDC     C368071  11.833  10.544   4.219 -0.8119  0.9051  1.2546
 6189UDC     C468072  11.705  10.621   4.196  0.5045 -0.4506  0.7057
 6189UDC     C568073  11.587  10.595   4.290  0.0209  1.4611  0.6063
 6189UDC     C668074  11.601  10.605   4.444  1.1681  0.0963  0.8357
 6189UDC     C768075  11.487  10.676   4.515 -0.5284  0.5638  0.6501
 6189UDC     C868076  11.394  10.563   4.569  0.9537 -0.2940  0.0212
 6189UDC     C968077  11.359  10.563   4.716 -0.0708 -0.1023 -0.0141
 6189UDC    C1068078  11.490  10.565   4.800 -0.0519 -0.0126  1.0850
 6189UDC    C1168079  11.579  10.442   4.776  0.4806 -1.0230  0.3965
 6190UDC     C168080  18.541   5.199  10.869 -0.5023 -1.1416  0.1004
 6190UDC     C268081  18.488   5.273  10.747 -0.1535  0.1822  0.8150
 6190UDC     C368082  18.584   5.242  10.625 -0.3343  0.3144 -0.4330
 6190UDC     C468083  18.598   5.096  10.589 -0.1646  0.6439 -0.7464
 6190UDC     C568084  18.696   5.055  10.476  0.3587 -0.2411 -0.4673
 6190UDC     C668085  18.727   4.909  10.451  0.8320  0.6389  0.8660
 6190UDC     C768086  18.612   4.825  10.424 -0.0288 -0.1959  0.1604
 6190UDC     C868087  18.531   4.887  10.310  0.3489  0.7686 -0.3295
 6190UDC     C968088  18.596   4.875  10.171  0.4533 -0.9064 -0.1160
 6190UDC    C1068089  18.623   4.735  10.123  0.3177  0.4085  0.4964
 6190UDC    C1168090  18.738   4.736  10.017  0.6992 -0.9742  0.1287
 6191UDC     C168091   5.696  11.984  19.204  0.8765  0.0657 -0.3363
 6191UDC     C268092   5.776  11.911  19.091 -0.1827  0.5602 -0.6624
 6191UDC     C368093   5.926  11.917  19.116  0.3069  0.2795  0.6286
 6191UDC     C468094   5.977  12.063  19.118 -0.0604 -0.0354  0.3943
 6191UDC     C568095   5.964  12.141  18.988  0.9074  0.3058 -0.5325
 6191UDC     C668096   5.977  12.294  18.995  0.4017 -0.3566 -0.2393
 6191UDC     C768097   6.092  12.308  18.887 -0.5174 -0.4087  0.6173
 6191UDC     C868098   6.042  12.362  18.746  1.1932  0.3567  0.3135
 6191UDC     C968099   6.147  12.353  18.632 -0.7380  0.8859  0.0912
 6191UDC    C1068100   6.097  12.420  18.510  0.6638 -0.6021  0.5710
 6191UDC    C1168101   6.086  12.332  18.386 -0.2867 -1.0049  0.1467
 6192UDC     C168102  19.600   7.569  19.967 -0.9656 -0.1068  0.3242
 6192UDC     C268103  19.680   7.649  19.865 -0.4372 -1.2792 -0.4136
 6192UDC     C368104  19.836   7.632  19.851  0.9945  0.3422  0.1395
 6192UDC     C468105  19.871   7.630  19.701  0.2319 -0.4885  0.3241
 6192UDC     C568106  20.013   7.576  19.673  0.6199  0.2478  0.6360
 6192UDC     C668107  20.052   7.542  19.517 -0.1066 -0.3835  0.2650
 6192UDC     C768108  19.970   7.439  19.434 -0.6278 -1.3684  0.5369
 6192UDC     C868109  19.829   7.476  19.405 -0.1230  0.0903  1.1880
 6192UDC     C968110  19.755   7.351  19.372  0.3849 -1.0780  1.0439
 6192UDC    C1068111  19.608   7.385  19.398  0.5020  0.5086  0.2293
 6192UDC    C1168112  19.565   7.528  19.350 -0.8854  0.0718  0.0771
 6193UDC     C168113   5.062  17.246   6.424  0.1433 -0.2953  0.2485
 6193UDC     C268114   4.994  17.318   6.313 -1.5693 -0.5577 -0.8332
 6193UDC     C368115   4.844  17.331   6.304 -0.7992 -0.6616  0.4162
 6193UDC     C468116   4.819  17.476   6.239 -0.1807  0.8298 -0.0703
 6193UDC     C568117   4.737  17.502   6.111  0.5388  0.1219 -0.1879
 6193UDC     C668118   4.714  17.654   6.085  0.3907  0.5131 -0.0889
 6193UDC     C768119   4.830  17.729   6.019 -0.3291 -0.9082 -0.9900
 6193UDC     C868120   4.969  17.758   6.086  0.9842 -0.2701 -0.7496
 6193UDC     C968121   5.085  17.749   5.995  0.5196  1.0344  0.8326
 6193UDC    C1068122   5.119  17.844   5.884 -0.1517 -1.6235 -0.1834
 6193UDC    C1168123   5.214  17.794   5.773  0.4610 -0.7283 -0.2143
 6194UDC     C168124  12.677  19.849  14.954  0.1572  0.2091 -0.5510
 6194UDC     C268125  12.656  19.767  15.086  0.2007  0.1100 -0.2160
 6194UDC     C368126  12.537  19.820  15.164  0.1985 -0.4669  1.0784
 6194UDC     C468127  12.545  19.977  15.189  0.1559  0.6451  0.7416
 6194UDC     C568128  12.481  20.022  15.320  0.8037 -0.2945  0.1658
 6194UDC     C668129  12.425  20.160  15.330  0.3638 -1.3105  0.0963
 6194UDC     C768130  12.286  20.201  15.389  0.0925  0.2067  0.1359
 6194UDC     C868131  12.292  20.353  15.402 -0.5528  0.0850 -0.6679
 6194UDC     C968132  12.177  20.432  15.343  0.5697 -0.0619  0.5292
 6194UDC    C1068133  12.228  20.578  15.366 -0.6469 -0.0643 -1.2098
 6194UDC    C1168134  12.346  20.633  15.288 -0.4622  0.2028 -1.3268
 6195UDC     C168135  19.616   1.998  10.271  0.2903 -0.3775 -0.1560
 6195UDC     C268136  19.561   1.997  10.412 -0.3298  0.3322 -0.1234
 6195UDC     C368137  19.507   1.857  10.423 -0.0775  0.7595  0.4825
 6195UDC     C468138  19.426   1.854  10.557 -0.2292  0.8494  0.3114
 6195UDC     C568139  19.426   1.712  10.614  0.5611 -0.1798 -0.1947
 6195UDC     C668140  19.307   1.628  10.563 -0.5583 -0.7162  0.1286
 6195UDC     C768141  19.347   1.509  10.474  0.2682 -0.2201  0.4232
 6195UDC     C868142  19.255   1.420  10.392  0.5583  0.2383 -0.5192
 6195UDC     C968143  19.161   1.490  10.297  0.9845  0.1364 -0.5845
 6195UDC    C1068144  19.064   1.399  10.216  0.3403  0.9317 -0.2946
 6195UDC    C1168145  19.007   1.281  10.303  0.0472  0.1664 -0.1081
 6196UDC     C168146  12.526   1.243  10.262  1.3430 -0.8337 -0.4828
 6196UDC     C268147  12.518   1.140  10.370 -0.3199  0.5627 -0.6239
 6196UDC     C368148  12.382   1.129  10.440 -0.2352  1.6905 -0.1108
 6196UDC     C468149  12.377   1.014  10.547  0.4466  0.2447 -0.9735
 6196UDC     C568150  12.242   1.005  10.632 -0.6661  1.8140  1.1912
 6196UDC     C668151  12.215   0.858  10.679  0.0463 -0.2683 -1.2468
 6196UDC     C768152  12.146   0.764  10.579  0.2503 -0.0549 -0.3976
 6196UDC     C868153  12.011   0.810  10.516  0.8181  0.2005 -0.6630
 6196UDC     C968154  11.939   0.685  10.462  0.3337  0.5433  0.3209
 6196UDC    C1068155  11.831   0.691  10.348 -0.4895 -0.3781  0.9240
 6196UDC    C1168156  11.727   0.582  10.369  0.0475 -0.1823  0.8368
 6197UDC     C168157  19.645  15.352  16.541 -0.5362 -0.7023 -0.3531
 6197UDC     C268158  19.751  15.468  16.511  0.6115 -0.1661 -0.8373
 6197UDC     C368159  19.894  15.438  16.565  0.3010  0.1085  0.2609
 6197UDC     C468160  20.001  15.542  16.529  0.2420  0.7460  0.2783
 6197UDC     C568161  20.145  15.489  16.552 -0.6839 -0.5387 -0.2536
 6197UDC     C668162  20.256  15.600  16.568  1.0939  0.2455  0.3745
 6197UDC     C768163  20.279  15.708  16.459 -0.4076 -0.3856  0.5853
 6197UDC     C868164  20.404  15.804  16.457 -0.2869  0.9496  0.0370
 6197UDC     C968165  20.536  15.730  16.467 -1.2292  0.6566 -0.3119
 6197UDC    C1068166  20.663  15.814  16.480  0.6355 -0.9420 -0.3382
 6197UDC    C1168167  20.785  15.772  16.395 -0.4915  0.3793 -0.1259
 6198UDC     C168168   1.950   1.432   1.390  0.2498  0.5829 -0.0900
 6198UDC     C268169   2.002   1.455   1.537 -0.7014 -1.1192  1.2088
 6198UDC     C368170   2.140   1.522   1.552  0.2360 -0.2627 -0.6194
 6198UDC     C468171   2.234   1.498   1.670  0.1409 -0.1529 -0.5776
 6198UDC     C568172   2.379   1.549   1.646  0.4076 -0.3781 -0.2422
 6198UDC     C668173   2.462   1.430   1.592 -0.3355 -0.8975  0.2000
 6198UDC     C768174   2.583   1.418   1.682  0.8881  0.2497 -1.0783
 6198UDC     C868175   2.652   1.283   1.662 -0.5831  1.6792  0.6411
 6198UDC     C968176   2.809   1.279   1.661  0.9551  0.7487 -0.8413
 6198UDC    C1068177   2.894   1.154   1.654 -0.3363 -0.1502  0.2223
 6198UDC    C1168178   2.891   1.073   1.520  0.3837  0.2441  0.1989
 6199UDC     C168179  17.695  11.180   0.266  0.5718 -0.1909 -0.3196
 6199UDC     C268180  17.728  11.326   0.223 -1.5509 -0.5803 -0.6556
 6199UDC     C368181  17.608  11.405   0.158 -0.3448 -0.3593 -0.1527
 6199UDC     C468182  17.506  11.440   0.264  0.0349 -0.2726 -0.0366
 6199UDC     C568183  17.371  11.482   0.214 -0.2429  0.0523 -1.1221
 6199UDC     C668184  17.359  11.571   0.087  1.0041  0.2930  0.2747
 6199UDC     C768185  17.376  11.728   0.108  0.2201  0.0094  0.1794
 6199UDC     C868186  17.242  11.804   0.142 -1.2016  0.1453 -0.6652
 6199UDC     C968187  17.252  11.956   0.175  0.3876  0.4732  0.5698
 6199UDC    C1068188  17.313  12.049   0.070 -0.3023 -0.0592  0.6335
 6199UDC    C1168189  17.223  12.041  -0.052  1.5932  0.4057 -0.7645
 6200UDC     C168190   0.113   4.538   3.544 -0.7662  0.1573 -1.5075
 6200UDC     C268191   0.186   4.642   3.456  0.0896 -0.0764 -1.1360
 6200UDC     C368192   0.333   4.666   3.509  0.0490 -0.8164 -0.6223
 6200UDC     C468193   0.338   4.730   3.659  0.1364  0.1675  0.1602
 6200UDC     C568194   0.284   4.868   3.640 -0.0897  0.0544  0.0404
 6200UDC     C668195   0.332   4.990   3.711  1.2004  0.4852 -0.8893
 6200UDC     C768196   0.284   5.123   3.644  0.3542 -0.7351 -0.0990
 6200UDC     C868197   0.337   5.154   3.500  0.0433  0.0533 -0.1563
 6200UDC     C968198   0.490   5.156   3.499  0.0180  0.5395 -0.0874
 6200UDC    C1068199   0.562   5.246   3.606 -0.2659  0.5685  0.3595
 6200UDC    C1168200   0.549   5.397   3.580 -0.5921  0.3441  0.1130
 6201UDC     C168201  10.709   0.539   5.608 -1.0381 -0.1883  0.0828
 6201UDC     C268202  10.858   0.496   5.606  0.7530  2.3352  0.2222
 6201UDC     C368203  10.935   0.582   5.500  0.2251 -0.5772 -0.5168
 6201UDC     C468204  10.838   0.580   5.381  0.4037  0.6992  0.1018
 6201UDC     C568205  10.893   0.660   5.253  0.0719 -0.2788 -0.2591
 6201UDC     C668206  10.807   0.781   5.221 -1.9018  0.5986  0.7056
 6201UDC     C768207  10.808   0.814   5.069  0.8289  0.1996  0.5299
 6201UDC     C868208  10.664   0.808   5.009 -0.2706  0.1932 -0.2327
 6201UDC     C968209  10.644   0.710   4.890  0.6680 -0.1039 -0.9770
 6201UDC    C1068210  10.493   0.727   4.879  0.0806 -0.2954 -0.4801
 6201UDC    C1168211  10.425   0.628   4.779  0.3340  0.3424  0.6991
 6202UDC     C168212  14.186   0.450   2.330 -0.9333  0.7642 -0.3781
 6202UDC     C268213  14.219   0.303   2.370 -1.1585 -0.2932 -0.0063
 6202UDC     C368214  14.216   0.200   2.257 -0.6965 -0.7090  0.3672
 6202UDC     C468215  14.352   0.198   2.183  0.0842  0.1236  0.6977
 6202UDC     C568216  14.341   0.097   2.075 -0.6567  1.0371 -0.3898
 6202UDC     C668217  14.485   0.087   2.024  1.0220 -0.4642  0.9451
 6202UDC     C768218  14.475   0.114   1.872  0.2956  0.4379  0.3777
 6202UDC     C868219  14.615   0.150   1.816  0.6320 -0.6396  1.0251
 6202UDC     C968220  14.700   0.032   1.777 -1.0398  0.0748  0.4722
 6202UDC    C1068221  14.636  -0.064   1.675  0.3815  0.3846  0.1868
 6202UDC    C1168222  14.654  -0.057   1.522 -0.4503 -0.9170  1.2026
 6203UDC     C168223  15.328   0.937   9.896  0.0605  0.5668 -0.4665
 6203UDC     C268224  15.205   1.017   9.896 -0.1918  0.7086  0.1936
 6203UDC     C368225  15.237   1.154   9.956 -0.0762  0.8968  0.5667
 6203UDC     C468226  15.121   1.252   9.924 -0.4593  0.2160  0.8065
 6203UDC     C568227  14.994   1.219  10.008 -0.2959  0.3790  0.0354
 6203UDC     C668228  14.871   1.298   9.974 -1.4222 -0.1198  1.4771
 6203UDC     C768229  14.760   1.305  10.074  0.0352  0.0316 -0.9803
 6203UDC     C868230  14.635   1.386  10.031 -0.4055  0.6443 -0.8135
 6203UDC     C968231  14.664   1.522   9.970  0.6380 -0.1735  0.8107
 6203UDC    C1068232  14.551   1.618   9.943 -0.3613 -0.3846  0.1072
 6203UDC    C1168233  14.619   1.737   9.872 -1.0611 -0.9883  0.4302
 6204UDC     C168234   9.968  10.058  15.695 -0.1579 -1.7727 -0.2820
 6204UDC     C268235   9.942  10.033  15.545  0.0264 -1.4090 -0.7711
 6204UDC     C368236   9.860  10.135  15.468  0.2746  0.0392  0.2799
 6204UDC     C468237   9.707  10.124  15.480  0.7613 -0.5948 -0.5826
 6204UDC     C568238   9.650   9.980  15.474  0.5187 -0.1124  0.0552
 6204UDC     C668239   9.533   9.969  15.369 -0.3268 -0.6609 -0.1252
 6204UDC     C768240   9.492   9.828  15.319  0.4080 -0.5518  0.2886
 6204UDC     C868241   9.614   9.731  15.326 -0.4163 -0.5009 -0.4065
 6204UDC     C968242   9.593   9.613  15.417  0.5168  1.0275 -0.3064
 6204UDC    C1068243   9.696   9.557  15.514 -0.0445 -0.5275 -0.2169
 6204UDC    C1168244   9.780   9.669  15.569  0.7633  0.1344 -1.0935
 6205UDC     C168245   2.858  12.459   5.505 -1.0459  0.6811  0.9417
 6205UDC     C268246   2.855  12.519   5.647 -0.6110  0.1373 -0.1816
 6205UDC     C368247   2.751  12.484   5.751  0.3526 -0.8745 -0.1117
 6205UDC     C468248   2.762  12.350   5.817 -0.4951 -0.5415 -0.0707
 6205UDC     C568249   2.706  12.230   5.733  0.6874 -0.4320 -0.6188
 6205UDC     C668250   2.561  12.192   5.764 -0.8968  0.3241  0.1017
 6205UDC     C768251   2.465  12.285   5.682 -0.8548 -0.7249  0.4580
 6205UDC     C868252   2.484  12.305   5.532  0.0679  0.1798 -0.9633
 6205UDC     C968253   2.408  12.202   5.441  1.1007  0.7093 -0.7734
 6205UDC    C1068254   2.254  12.226   5.465 -0.3907  0.7295  0.0799
 6205UDC    C1168255   2.169  12.134   5.379  0.0037 -0.3210 -0.0744
 6206UDC     C168256  19.848  15.984  18.764  0.1665  0.4549  0.4207
 6206UDC     C268257  19.871  16.077  18.871  1.4544  0.8236 -1.0140
 6206UDC     C368258  19.748  16.172  18.868  0.2574  0.0627  0.9165
 6206UDC     C468259  19.621  16.090  18.820  0.8566 -0.2470 -0.2164
 6206UDC     C568260  19.503  16.165  18.759  1.3545 -0.5085  0.3315
 6206UDC     C668261  19.417  16.072  18.678  0.4103  0.1694  0.1461
 6206UDC     C768262  19.500  16.005  18.561 -0.0318  0.8939  0.1582
 6206UDC     C868263  19.454  15.865  18.505  0.4232  0.3688 -0.5813
 6206UDC     C968264  19.546  15.820  18.383 -0.0637  0.5008 -0.2483
 6206UDC    C1068265  19.561  15.931  18.282  0.2662 -0.0975  0.3867
 6206UDC    C1168266  19.447  15.933  18.180  0.5036  0.4129  0.0462
 6207UDC     C168267  18.754   0.092   8.680 -0.8402 -0.1244 -0.5989
 6207UDC     C268268  18.760   0.239   8.633  0.8937 -0.1239  0.1947
 6207UDC     C368269  18.889   0.301   8.574 -0.7080 -0.4043  0.3056
 6207UDC     C468270  18.856   0.431   8.500 -1.1181 -0.0394 -0.2575
 6207UDC     C568271  18.961   0.548   8.531 -0.4549  0.2047 -0.2977
 6207UDC     C668272  18.937   0.677   8.457  0.0070 -0.3083 -0.0318
 6207UDC     C768273  19.030   0.787   8.501  0.4785  1.5312 -0.2389
 6207UDC     C868274  19.034   0.815   8.657  0.6205  0.0472 -0.0516
 6207UDC     C968275  19.121   0.942   8.685 -0.8255  0.4990  1.0822
 6207UDC    C1068276  19.150   0.983   8.828  0.0993  0.4293 -0.4801
 6207UDC    C1168277  19.243   1.110   8.838  0.2785  0.7965  0.6688
 6208UDC     C168278   1.554   4.698  10.742  0.5084 -0.2782  0.6938
 6208UDC     C268279   1.481   4.638  10.868  0.2919 -0.5046  1.7101
 6208UDC     C368280   1.513   4.728  10.985 -0.2597  0.4144 -0.2768
 6208UDC     C468281   1.425   4.858  10.980  0.6860 -0.0287 -0.9935
 6208UDC     C568282   1.275   4.812  10.988 -0.5200  0.1161  0.0739
 6208UDC     C668283   1.156   4.907  11.006  0.7638 -0.9001  0.6004
 6208UDC     C768284   1.149   4.995  11.135  0.1597 -0.6537 -0.2545
 6208UDC     C868285   1.228   5.128  11.123 -0.8146 -0.9021 -0.0157
 6208UDC     C968286   1.168   5.251  11.207 -0.3627 -0.3923 -0.2433
 6208UDC    C1068287   1.265   5.374  11.181 -0.2840  1.2499 -0.0345
 6208UDC    C1168288   1.286   5.385  11.032  0.2634  0.1119 -0.2072
 6209UDC     C168289   6.253  19.053  11.788  0.0566 -0.1987 -0.4141
 6209UDC     C268290   6.261  18.902  11.756  0.3429 -0.1159 -0.2330
 6209UDC     C368291   6.122  18.846  11.803  0.3068 -0.0547 -0.0584
 6209UDC     C468292   6.107  18.772  11.939  0.6724 -0.1132  0.0635
 6209UDC     C568293   5.958  18.735  11.966 -0.0644 -0.5322 -0.9028
 6209UDC     C668294   5.909  18.710  12.115 -0.8738  0.0971  0.8278
 6209UDC     C768295   5.814  18.593  12.102  0.4799  0.3198 -0.9464
 6209UDC     C868296   5.739  18.571  12.231  0.3000  0.4742 -1.6164
 6209UDC     C968297   5.642  18.454  12.239  0.2519  0.4380  0.6081
 6209UDC    C1068298   5.594  18.418  12.378  0.1582 -0.3070  0.1602
 6209UDC    C1168299   5.528  18.279  12.384  0.1294 -0.9052  0.6740
 6210UDC     C168300   5.547   9.446  16.045 -0.1644  0.2553  0.4319
 6210UDC     C268301   5.416   9.380  16.082  0.0419 -0.1273 -0.8351
 6210UDC     C368302   5.309   9.483  16.117 -0.5136  0.3890 -0.6770
 6210UDC     C468303   5.269   9.579  16.008  0.4268 -0.4011 -0.1658
 6210UDC     C568304   5.118   9.617  16.012  0.1908  0.0677  0.5002
 6210UDC     C668305   5.061   9.746  15.953  0.2404  0.6870  0.2961
 6210UDC     C768306   4.909   9.774  15.943 -0.5393 -0.0314 -1.1267
 6210UDC     C868307   4.841   9.720  15.815 -0.4941  0.1357 -1.1951
 6210UDC     C968308   4.687   9.704  15.805 -1.2062 -0.7426  0.0885
 6210UDC    C1068309   4.626   9.629  15.676 -0.6441 -0.7245 -0.4193
 6210UDC    C1168310   4.478   9.604  15.686  0.4231  0.1577 -0.9718
 6211UDC     C168311   2.315  10.249  13.202 -0.4409 -0.5888  0.6463
 6211UDC     C268312   2.320  10.395  13.229 -0.5859 -0.0463  0.2257
 6211UDC     C368313   2.377  10.455  13.364 -0.4510 -0.3471  0.3990
 6211UDC     C468314   2.336  10.590  13.418  1.0061 -0.3456  0.6299
 6211UDC     C568315   2.360  10.613  13.562 -0.0199 -0.2177 -1.8708
 6211UDC     C668316   2.256  10.721  13.609 -0.5628 -0.1111 -0.1732
 6211UDC     C768317   2.115  10.670  13.623 -0.1915 -0.3041  0.5019
 6211UDC     C868318   2.040  10.788  13.685  0.1161 -0.1859 -0.1213
 6211UDC     C968319   1.990  10.887  13.581 -0.6141 -0.7586  0.0698
 6211UDC    C1068320   1.857  10.949  13.604  0.7308  0.2296  0.4266
 6211UDC    C1168321   1.811  11.026  13.471 -0.3584 -0.4479  0.1504
 6212UDC     C168322  13.872   4.518  17.124 -1.1805  0.6519 -0.3071
 6212UDC     C268323  13.755   4.520  17.030 -0.2152 -0.4126  0.2690
 6212UDC     C368324  13.686   4.389  17.011  0.0326  0.1817 -0.5965
 6212UDC     C468325  13.574   4.397  16.908  1.2112 -0.2512  1.2519
 6212UDC     C568326  13.620   4.358  16.768 -1.0789 -0.4501 -0.6097
 6212UDC     C668327  13.704   4.228  16.765 -0.5753  0.5053 -0.0500
 6212UDC     C768328  13.840   4.225  16.694  0.2485  0.5017 -0.0876
 6212UDC     C868329  13.840   4.248  16.540 -0.2237 -0.1163 -0.0620
 6212UDC     C968330  13.838   4.118  16.459  0.5786  0.2815 -0.4853
 6212UDC    C1068331  13.965   4.038  16.468 -1.4150  0.2529 -0.2346
 6212UDC    C1168332  14.074   4.059  16.358 -0.2231  0.1863 -0.5554
 6213UDC     C168333  13.990  13.160   8.705 -0.7254  0.5694 -0.5845
 6213UDC     C268334  14.001  13.212   8.561  0.6708 -0.6436  0.4003
 6213UDC     C368335  14.072  13.118   8.468 -0.0606 -1.0562 -0.2337
 6213UDC     C468336  14.221  13.124   8.481  0.4823 -0.6990  0.6347
 6213UDC     C568337  14.274  13.025   8.579  0.5711  0.0332  1.0482
 6213UDC     C668338  14.228  12.879   8.573 -0.7695 -0.1487  1.1345
 6213UDC     C768339  14.255  12.823   8.431  0.0533  0.0120 -0.2368
 6213UDC     C868340  14.214  12.676   8.442 -0.8442 -0.6938  0.2241
 6213UDC     C968341  14.220  12.616   8.297  1.0953 -1.2741 -0.5217
 6213UDC    C1068342  14.248  12.466   8.295 -0.6108 -0.2468 -0.1779
 6213UDC    C1168343  14.400  12.421   8.309  0.6501  0.4121 -0.6114
 6214UDC     C168344  19.146   7.979   3.867  0.4731  0.6934  0.9337
 6214UDC     C268345  19.138   7.826   3.854  0.0958  0.7293 -0.6380
 6214UDC     C368346  19.151   7.743   3.990 -1.0114 -0.2740  0.8255
 6214UDC     C468347  19.297   7.703   4.015  0.2010  0.9359  0.8000
 6214UDC     C568348  19.331   7.632   4.148  0.5136  1.0028  0.9123
 6214UDC     C668349  19.310   7.719   4.271 -0.6732 -0.4560 -0.8446
 6214UDC     C768350  19.381   7.857   4.267  0.7934 -1.3812 -0.1597
 6214UDC     C868351  19.354   7.948   4.395 -0.2979 -0.0267  0.8129
 6214UDC     C968352  19.480   7.981   4.481  0.2330 -0.8866 -0.1942
 6214UDC    C1068353  19.454   7.946   4.632  0.2807 -0.8794 -0.1364
 6214UDC    C1168354  19.425   7.801   4.647 -0.1240 -0.0325 -0.4630
 6215UDC     C168355   3.022   6.765  19.820 -0.2648  0.0711  0.9744
 6215UDC     C268356   2.876   6.750  19.775 -0.1089  0.1386 -0.1177
 6215UDC     C368357   2.821   6.862  19.689 -1.2274 -0.4711 -0.1221
 6215UDC     C468358   2.697   6.807  19.615  0.3515 -0.2099 -1.1642
 6215UDC     C568359   2.668   6.904  19.505 -0.2993 -0.8763 -0.4598
 6215UDC     C668360   2.523   6.939  19.465 -0.8454 -0.8016 -0.1693
 6215UDC     C768361   2.503   7.066  19.388  1.0341 -0.2349  1.0516
 6215UDC     C868362   2.363   7.116  19.437  1.3276  0.9794  0.0011
 6215UDC     C968363   2.258   7.058  19.332 -0.7342  0.9496  0.1920
 6215UDC    C1068364   2.111   7.068  19.383 -0.5260 -0.7086  0.1197
 6215UDC    C1168365   2.017   7.057  19.262  0.3933  0.9611 -1.4568
 6216UDC     C168366  13.331  13.821  16.226 -0.7013 -0.0362  0.4527
 6216UDC     C268367  13.455  13.896  16.180  0.1658  0.9337 -0.1984
 6216UDC     C368368  13.460  14.045  16.186 -0.4702  1.1039  0.6460
 6216UDC     C468369  13.571  14.083  16.088  0.0480 -0.2701  0.8635
 6216UDC     C568370  13.548  14.033  15.944  0.2433  1.0200  0.4786
 6216UDC     C668371  13.663  14.064  15.844 -0.0763 -1.2095  1.0965
 6216UDC     C768372  13.794  13.975  15.844 -0.6204  0.5468  0.2369
 6216UDC     C868373  13.891  14.018  15.732 -0.2357 -0.1975  0.9363
 6216UDC     C968374  13.828  14.015  15.582 -0.9053  0.3144 -0.9720
 6216UDC    C1068375  13.916  14.093  15.494 -0.0761 -0.4642  0.6448
 6216UDC    C1168376  13.852  14.107  15.358  0.1131 -0.5656 -0.5064
 6217UDC     C168377  14.458  10.223   7.948  0.6163  0.3263  0.2161
 6217UDC     C268378  14.548  10.175   7.833 -0.1509  0.8635  1.3039
 6217UDC     C368379  14.568  10.278   7.720  0.5872 -0.8213  0.4391
 6217UDC     C468380  14.453  10.303   7.614  0.6006  1.2313 -0.3024
 6217UDC     C568381  14.467  10.427   7.527 -0.5036 -0.1777  0.3312
 6217UDC     C668382  14.502  10.561   7.598  0.1997 -0.5655  0.1037
 6217UDC     C768383  14.373  10.639   7.642  1.0710  0.2164  0.7771
 6217UDC     C868384  14.388  10.791   7.667 -0.3467 -0.3850 -0.7462
 6217UDC     C968385  14.264  10.855   7.736  0.7273 -0.0741 -1.3275
 6217UDC    C1068386  14.262  11.013   7.763 -0.5170  0.6192  0.2999
 6217UDC    C1168387  14.143  11.053   7.847 -0.1314  0.3025 -0.1361
 6218UDC     C168388  16.610   3.550  19.920 -0.2014 -0.3387 -0.5447
 6218UDC     C268389  16.754   3.509  19.902  0.5467  0.7257  0.7572
 6218UDC     C368390  16.830   3.492  20.037  0.1878 -0.4019  0.8382
 6218UDC     C468391  16.967   3.418  20.027 -0.1340 -0.2660 -0.0389
 6218UDC     C568392  16.942   3.270  20.001 -0.9078  0.7507  0.4125
 6218UDC     C668393  16.976   3.168  20.111 -0.3787 -1.4588  0.1030
 6218UDC     C768394  16.930   3.036  20.052  0.5804 -0.5911  0.2036
 6218UDC     C868395  16.777   3.011  20.053  0.3156 -0.2232  1.1065
 6218UDC     C968396  16.737   2.895  19.968  1.0029 -0.2428  0.6713
 6218UDC    C1068397  16.796   2.920  19.826 -0.4896  0.1003  1.2676
 6218UDC    C1168398  16.761   2.803  19.730  0.3459  0.6497  0.2698
 6219UDC     C168399  15.936   2.146   5.817 -0.0055 -0.1046 -0.6083
 6219UDC     C268400  15.786   2.163   5.787 -1.1061  0.0876 -0.4976
 6219UDC     C368401  15.773   2.153   5.636  0.4876  0.9011 -0.3934
 6219UDC     C468402  15.626   2.136   5.589 -0.2273  0.1147  0.0053
 6219UDC     C568403  15.518   2.208   5.680 -0.1499  0.0079 -0.6907
 6219UDC     C668404  15.385   2.235   5.609 -0.5148  0.5576  0.0966
 6219UDC     C768405  15.276   2.129   5.626 -0.8179 -0.3664 -0.8516
 6219UDC     C868406  15.166   2.124   5.523 -0.1329 -0.4074 -1.0003
 6219UDC     C968407  15.035   2.068   5.582  0.7510 -0.4780  0.5321
 6219UDC    C1068408  14.931   2.066   5.470  0.5728 -0.1736  0.7478
 6219UDC    C1168409  14.881   2.216   5.444 -0.1403  0.1108  1.1468
 6220UDC     C168410   0.445   7.769   5.865 -0.1028 -0.1286  0.5979
 6220UDC     C268411   0.305   7.784   5.922  0.3973  0.4328 -0.4710
 6220UDC     C368412   0.193   7.798   5.812 -0.1331  0.0640 -0.0146
 6220UDC     C468413   0.212   7.910   5.705  0.3580  0.1318 -0.4161
 6220UDC     C568414   0.112   7.917   5.590  0.6279 -0.3929 -0.0727
 6220UDC     C668415   0.173   8.022   5.496 -1.3825 -0.3004 -0.0374
 6220UDC     C768416   0.123   8.009   5.356  0.2836 -0.2645 -0.9445
 6220UDC     C868417  -0.031   8.045   5.360 -0.3889 -1.0430  0.4494
 6220UDC     C968418  -0.078   8.099   5.228  0.4166  0.0649 -0.4102
 6220UDC    C1068419  -0.231   8.118   5.220  0.0284 -0.2406 -0.3580
 6220UDC    C1168420  -0.284   8.094   5.079  0.0339 -0.6103  1.2770
 6221UDC     C168421  17.444   2.850  15.388 -0.2313  0.3826  0.5770
 6221UDC     C268422  17.411   2.764  15.512 -1.0460  0.3467  0.3935
 6221UDC     C368423  17.262   2.716  15.528 -0.4281 -0.2889 -0.3836
 6221UDC     C468424  17.259   2.634  15.665 -0.2417  0.2829  0.5172
 6221UDC     C568425  17.135   2.660  15.754  0.4432  1.2297  1.0849
 6221UDC     C668426  16.997   2.599  15.718  0.2626 -0.3545  0.4765
 6221UDC     C768427  17.005   2.468  15.790 -0.1099 -1.0573 -0.0128
 6221UDC     C868428  16.939   2.348  15.711  0.5127 -0.6640  0.9138
 6221UDC     C968429  16.952   2.227  15.800  0.2706  0.6697 -0.0491
 6221UDC    C1068430  17.072   2.134  15.782  0.4638  0.7337 -0.2910
 6221UDC    C1168431  17.092   2.080  15.645  0.3412  0.2397 -0.9250
 6222UDC     C168432   5.965  17.887  11.117 -0.4437  0.1522  0.4631
 6222UDC     C268433   5.865  17.767  11.132 -1.1435 -1.2641  1.2517
 6222UDC     C368434   5.736  17.799  11.206 -0.0073  1.0888 -0.3707
 6222UDC     C468435   5.635  17.900  11.157  0.7292 -0.1535 -0.2457
 6222UDC     C568436   5.506  17.926  11.253 -0.3891 -0.4253 -0.1950
 6222UDC     C668437   5.407  18.038  11.214 -0.2668 -0.6438  0.5693
 6222UDC     C768438   5.280  18.030  11.295 -1.1635 -0.4755  0.2410
 6222UDC     C868439   5.237  18.078  11.440 -0.4464 -0.0488 -0.4777
 6222UDC     C968440   5.336  18.011  11.538  1.0661  0.2510  0.3875
 6222UDC    C1068441   5.339  18.078  11.673 -0.1666  0.3846 -0.6307
 6222UDC    C1168442   5.207  18.049  11.740 -0.2296  0.7301 -0.0095
 6223UDC     C168443  13.631  14.237   8.464  0.1524  0.0199  0.0343
 6223UDC     C268444  13.638  14.103   8.546  0.3618  0.7085  1.7016
 6223UDC     C368445  13.755  14.012   8.499 -0.6433 -0.3074 -0.4774
 6223UDC     C468446  13.875  14.005   8.595  0.3202  0.0503 -0.2597
 6223UDC     C568447  13.888  13.868   8.651 -0.2107 -0.6662 -0.1409
 6223UDC     C668448  14.026  13.824   8.688 -0.6438  0.7273 -0.3629
 6223UDC     C768449  14.084  13.742   8.569  0.1479 -0.1236  0.1321
 6223UDC     C868450  14.216  13.668   8.596  0.1249  0.5689  0.2112
 6223UDC     C968451  14.272  13.592   8.468  1.0471 -0.2004  0.7039
 6223UDC    C1068452  14.277  13.681   8.342  0.2294 -1.0774  0.6572
 6223UDC    C1168453  14.260  13.606   8.209 -0.9235 -0.3851 -0.3823
 6224UDC     C168454   7.305   5.586  10.896 -0.9274  0.8859  0.0907
 6224UDC     C268455   7.195   5.499  10.962  0.7625 -0.3173  0.2646
 6224UDC     C368456   7.057   5.577  10.942 -0.2232 -0.6625  0.2427
 6224UDC     C468457   7.000   5.586  10.802 -0.5310  0.8134  0.2693
 6224UDC     C568458   6.850   5.627  10.808 -0.9061 -0.1892  0.0119
 6224UDC     C668459   6.826   5.690  10.662 -0.6937  1.1427 -0.8332
 6224UDC     C768460   6.694   5.761  10.635 -0.1308  0.8030 -0.4119
 6224UDC     C868461   6.669   5.908  10.665 -0.2812 -0.3565 -0.1424
 6224UDC     C968462   6.597   5.972  10.543 -0.1233  0.1123  0.7708
 6224UDC    C1068463   6.669   5.949  10.402  0.3250 -0.0865 -0.1241
 6224UDC    C1168464   6.570   5.899  10.294  0.1047  1.2736  0.2393
 6225UDC     C168465  14.484   9.421  17.632 -0.3177  0.3331 -0.2887
 6225UDC     C268466  14.389   9.390  17.514  0.4340  0.4859  0.0918
 6225UDC     C368467  14.250   9.394  17.583 -0.2041  0.2018  0.0798
 6225UDC     C468468  14.119   9.433  17.509  0.4683  0.3050  0.7422
 6225UDC     C568469  14.008   9.352  17.567 -0.1432  0.0412 -0.1170
 6225UDC     C668470  13.893   9.307  17.471  0.2380  0.0328  0.7512
 6225UDC     C768471  13.784   9.222  17.539 -0.4438 -0.9295 -0.6669
 6225UDC     C868472  13.668   9.192  17.438 -0.8177 -0.4881 -0.5449
 6225UDC     C968473  13.719   9.098  17.327 -0.1112  0.9484  0.1623
 6225UDC    C1068474  13.604   9.041  17.240 -0.1885  0.4249  0.1697
 6225UDC    C1168475  13.665   8.978  17.123  0.9538 -0.9628 -0.0616
 6226UDC     C168476   6.668  13.232   5.949 -0.1742 -0.7580  0.2692
 6226UDC     C268477   6.689  13.379   5.899  0.7762  0.9690 -0.3143
 6226UDC     C368478   6.562  13.439   5.840 -0.0632  0.0119 -0.1492
 6226UDC     C468479   6.595  13.583   5.781  0.0359  0.4502  0.9366
 6226UDC     C568480   6.589  13.577   5.621 -0.8959 -0.5032  0.2877
 6226UDC     C668481   6.706  13.505   5.547  0.0479  0.5304  0.0948
 6226UDC     C768482   6.822  13.600   5.516  0.6690 -0.5780 -0.0021
 6226UDC     C868483   6.949  13.534   5.459  0.2167 -0.7289 -0.9864
 6226UDC     C968484   7.036  13.634   5.379  0.0636  0.8028 -0.8317
 6226UDC    C1068485   7.033  13.596   5.235 -0.5440  0.2190 -0.4432
 6226UDC    C1168486   7.087  13.459   5.201 -0.8450 -0.3153 -1.2201
 6227UDC     C168487  17.564   9.146  18.086  0.1898  0.5530 -0.0486
 6227UDC     C268488  17.424   9.204  18.136 -1.5201 -0.2455 -0.1582
 6227UDC     C368489  17.422   9.310  18.251 -0.0739  0.9364 -0.0188
 6227UDC     C468490  17.314   9.428  18.253  1.3599  0.1917 -1.8696
 6227UDC     C568491  17.264   9.509  18.127 -0.1202 -0.3531 -0.6425
 6227UDC     C668492  17.207   9.644  18.163 -1.1971  1.6242  1.0053
 6227UDC     C768493  17.312   9.750  18.168 -0.1081 -0.0930  0.2078
 6227UDC     C868494  17.273   9.871  18.256  0.0335 -0.6370  1.0739
 6227UDC     C968495  17.256   9.827  18.398  0.3078 -0.1235 -0.4362
 6227UDC    C1068496  17.393   9.809  18.487  0.1043  0.1331 -0.5482
 6227UDC    C1168497  17.471   9.939  18.486 -0.1666 -0.0659  1.4056
 6228UDC     C168498  12.444  14.286  19.173  0.4261  0.5483  0.0959
 6228UDC     C268499  12.392  14.380  19.060  0.5396  0.6954  1.0681
 6228UDC     C368500  12.476  14.420  18.939 -0.8273 -0.8839  0.4515
 6228UDC     C468501  12.492  14.315  18.834 -1.7475  0.0776  0.5343
 6228UDC     C568502  12.596  14.210  18.868 -0.6827  0.5489  0.0034
 6228UDC     C668503  12.581  14.077  18.798  0.0709 -0.5259  0.6441
 6228UDC     C768504  12.671  13.963  18.834  0.1391 -0.6191 -0.0370
 6228UDC     C868505  12.631  13.919  18.973  0.2518  0.8702 -0.1610
 6228UDC     C968506  12.738  13.844  19.053 -0.2355  0.6556 -0.2667
 6228UDC    C1068507  12.873  13.915  19.075  0.9304  0.3580 -0.6373
 6228UDC    C1168508  12.855  14.026  19.181  0.3567  0.0215  1.4846
 6229UDC     C168509   5.758   9.581   2.184  0.0218 -0.0642 -0.5351
 6229UDC     C268510   5.616   9.549   2.148 -0.0023  0.5146  2.2057
 6229UDC     C368511   5.525   9.567   2.265  0.1144  0.0480 -1.0541
 6229UDC     C468512   5.380   9.592   2.212 -1.1854  0.2982 -0.6772
 6229UDC     C568513   5.275   9.603   2.322 -0.0218 -0.1353 -0.1736
 6229UDC     C668514   5.158   9.668   2.258 -0.4044 -0.4584  0.0714
 6229UDC     C768515   5.036   9.671   2.349 -0.6165  0.9801  0.2207
 6229UDC     C868516   4.913   9.585   2.316 -0.0554 -0.1691  0.2924
 6229UDC     C968517   4.790   9.623   2.391 -0.1185  0.8829  0.2402
 6229UDC    C1068518   4.826   9.680   2.525  1.2374 -0.7950  0.0847
 6229UDC    C1168519   4.738   9.660   2.649 -1.0924  0.0692  2.1064
 6230UDC     C168520  18.622   0.379   7.698  1.2861  0.1554 -0.1180
 6230UDC     C268521  18.674   0.337   7.559 -0.0693  1.0405  0.3380
 6230UDC     C368522  18.795   0.429   7.526 -0.4902  0.6115  0.1415
 6230UDC     C468523  18.857   0.429   7.379 -1.6122  0.1242 -0.1651
 6230UDC     C568524  18.994   0.507   7.363 -0.1943  0.9339 -0.8517
 6230UDC     C668525  19.095   0.491   7.243 -0.0274  0.5621 -0.1978
 6230UDC     C768526  19.146   0.346   7.239  0.1216 -0.3775 -0.5231
 6230UDC     C868527  19.239   0.317   7.357  1.4156 -0.9630  0.6105
 6230UDC     C968528  19.381   0.374   7.363 -0.2931  0.0923  0.8115
 6230UDC    C1068529  19.476   0.295   7.452 -0.5344  0.3899  0.0927
 6230UDC    C1168530  19.478   0.147   7.420 -1.0195 -0.3215 -0.3841
 6231UDC     C168531  16.647   6.528  18.373 -0.5674  0.8372  0.2306
 6231UDC     C268532  16.699   6.411  18.453  0.0744  0.5642 -0.7944
 6231UDC     C368533  16.758   6.442  18.588 -0.2088 -0.0995 -0.4373
 6231UDC     C468534  16.821   6.321  18.656 -0.2312  0.1074 -0.4459
 6231UDC     C568535  16.736   6.235  18.753  0.3499 -1.1308 -1.0973
 6231UDC     C668536  16.825   6.156  18.850 -0.7267  1.1503 -0.2066
 6231UDC     C768537  16.873   6.216  18.979 -0.5237 -0.0953 -0.4706
 6231UDC     C868538  16.770   6.276  19.079 -0.4133 -0.7242 -0.4139
 6231UDC     C968539  16.824   6.374  19.184 -0.6725 -2.0361 -0.1974
 6231UDC    C1068540  16.723   6.449  19.267 -0.5449 -1.5636 -0.4060
 6231UDC    C1168541  16.806   6.571  19.326 -0.3545  0.0568  0.7953
 6232UDC     C168542  10.040   7.044  12.764 -0.1928  0.0091 -0.2096
 6232UDC     C268543   9.991   7.181  12.794  0.2480 -0.0717 -0.1757
 6232UDC     C368544   9.900   7.211  12.677  0.1111  0.1216  0.3708
 6232UDC     C468545   9.777   7.123  12.674 -0.1874  0.0798  0.3671
 6232UDC     C568546   9.676   7.156  12.790 -0.6143 -0.7108 -0.5387
 6232UDC     C668547   9.529   7.108  12.779  0.0381  0.6438 -0.6536
 6232UDC     C768548   9.430   7.122  12.897  0.9808 -0.0285  0.5122
 6232UDC     C868549   9.282   7.073  12.893 -0.0014  0.5374 -1.0204
 6232UDC     C968550   9.190   7.127  12.775 -0.1347  0.2013  0.3624
 6232UDC    C1068551   9.069   7.034  12.751  0.3186  0.0464 -0.4918
 6232UDC    C1168552   8.977   7.065  12.625 -0.3408  0.0784 -0.1955
 6233UDC     C168553  10.461  17.546  18.132  0.1304 -1.0251  0.0794
 6233UDC     C268554  10.520  17.406  18.112 -0.6296  1.7030  0.0001
 6233UDC     C368555  10.446  17.316  18.204  0.2093 -0.3289  1.1469
 6233UDC     C468556  10.460  17.165  18.191 -0.0335  1.2638  0.3184
 6233UDC     C568557  10.391  17.128  18.065 -0.3642  1.1007 -0.2852
 6233UDC     C668558  10.405  16.971  18.057  0.3162 -0.9001 -1.3963
 6233UDC     C768559  10.302  16.899  17.967 -0.2534 -0.7069  0.5807
 6233UDC     C868560  10.340  16.899  17.820 -0.6962 -1.4029  0.9094
 6233UDC     C968561  10.260  16.794  17.750 -0.4445  0.5503 -0.0616
 6233UDC    C1068562  10.261  16.802  17.595 -0.9140 -0.6959  0.8361
 6233UDC    C1168563  10.407  16.811  17.551 -0.6043 -0.0944  1.2221
 6234UDC     C168564  12.138  12.409   4.220 -0.2011 -0.0920  1.6417
 6234UDC     C268565  12.047  12.291   4.250  0.3471 -0.4274  0.6157
 6234UDC     C368566  11.897  12.344   4.234 -0.7114  1.0602 -0.7563
 6234UDC     C468567  11.857  12.414   4.362  0.2196  0.6680 -0.5288
 6234UDC     C568568  11.710  12.408   4.378  0.4773 -0.9824 -0.4100
 6234UDC     C668569  11.645  12.499   4.489  0.1457  0.0562 -0.5660
 6234UDC     C768570  11.587  12.630   4.436  0.1226  1.6863 -1.2466
 6234UDC     C868571  11.672  12.742   4.489 -0.0945  0.2667  0.1152
 6234UDC     C968572  11.595  12.870   4.461 -0.1585 -0.2585 -1.2374
 6234UDC    C1068573  11.621  12.981   4.570 -0.7750  1.1127 -0.7319
 6234UDC    C1168574  11.589  12.920   4.708 -0.1748 -0.6005  0.8464
 6235UDC     C168575  18.566  16.025   2.063  0.2546 -0.3305  0.0538
 6235UDC     C268576  18.566  15.876   2.027  0.0881  0.0659  0.4921
 6235UDC     C368577  18.664  15.840   1.915 -0.1561 -0.1259  0.0480
 6235UDC     C468578  18.784  15.933   1.900  0.1933 -0.2592  0.2146
 6235UDC     C568579  18.861  15.911   1.766 -0.4681 -1.1333 -0.3580
 6235UDC     C668580  18.935  15.778   1.759  0.0075 -0.2307 -0.2810
 6235UDC     C768581  18.999  15.754   1.618 -0.1903 -1.0722 -0.2569
 6235UDC     C868582  18.913  15.803   1.500 -1.0669 -0.2171  0.0401
 6235UDC     C968583  18.986  15.744   1.376  1.2178 -0.2039 -0.3800
 6235UDC    C1068584  19.021  15.597   1.407 -0.3391  0.0103  0.1456
 6235UDC    C1168585  18.921  15.489   1.379  0.4928 -0.6647 -0.0672
 6236UDC     C168586  12.829   8.147  11.380  1.0802  0.3846 -1.1070
 6236UDC     C268587  12.710   8.115  11.288  0.7955 -0.6681  0.0811
 6236UDC     C368588  12.604   8.236  11.263 -0.0252 -0.3994 -0.3428
 6236UDC     C468589  12.678   8.368  11.207  0.0581 -0.8812 -0.5750
 6236UDC     C568590  12.570   8.470  11.164  0.0784  1.2934 -0.7080
 6236UDC     C668591  12.624   8.602  11.119 -0.6484  0.0590  0.6198
 6236UDC     C768592  12.546   8.656  11.002 -0.2965 -0.1970  1.4077
 6236UDC     C868593  12.499   8.532  10.917  0.8992  0.8664  0.1119
 6236UDC     C968594  12.449   8.549  10.769 -0.1802  0.7403 -1.0361
 6236UDC    C1068595  12.395   8.416  10.711  1.5025 -0.4361  0.3781
 6236UDC    C1168596  12.234   8.412  10.701 -0.8820  0.0478 -0.2066
 6237UDC     C168597  16.387   0.583   0.463 -0.0196  0.3329 -0.5786
 6237UDC     C268598  16.348   0.717   0.405 -0.7074  0.4691  0.1980
 6237UDC     C368599  16.451   0.832   0.411 -0.0670 -1.9268 -0.1569
 6237UDC     C468600  16.567   0.838   0.299  0.5241  0.3514 -1.1754
 6237UDC     C568601  16.689   0.764   0.352  0.2806 -0.6026  0.3871
 6237UDC     C668602  16.820   0.788   0.275 -0.5037 -0.6769 -0.4863
 6237UDC     C768603  16.831   0.728   0.132  0.1297 -0.1882 -1.6455
 6237UDC     C868604  16.970   0.742   0.072 -0.0713 -1.4445  0.4716
 6237UDC     C968605  16.995   0.693  -0.069  0.4282  0.5823 -0.2152
 6237UDC    C1068606  16.911   0.760  -0.175  1.1375 -0.6717 -0.6268
 6237UDC    C1168607  16.869   0.909  -0.150  0.6006  0.5252 -0.1346
 6238UDC     C168608  13.685   6.166   5.682  0.2831 -0.4697 -0.1357
 6238UDC     C268609  13.681   6.212   5.536 -0.6971 -0.0500 -0.1107
 6238UDC     C368610  13.635   6.107   5.435  0.4652 -0.4353  0.2814
 6238UDC     C468611  13.663   6.129   5.277 -0.5048  0.1648  0.6690
 6238UDC     C568612  13.617   6.007   5.188 -0.0045 -0.5545 -1.1028
 6238UDC     C668613  13.632   6.032   5.036 -0.2491  0.6518  0.6923
 6238UDC     C768614  13.640   5.894   4.971 -0.3105  0.2933  0.5144
 6238UDC     C868615  13.666   5.925   4.825  0.4601 -0.0846 -0.2870
 6238UDC     C968616  13.640   6.059   4.764 -0.0479 -0.7942 -1.2841
 6238UDC    C1068617  13.629   6.070   4.610 -0.5013  0.2135 -1.0913
 6238UDC    C1168618  13.497   6.043   4.541  0.2214 -0.5398 -1.7145
 6239UDC     C168619  18.054  12.078  15.583  0.0560  0.3684 -0.4362
 6239UDC     C268620  18.091  12.037  15.443 -0.3881 -0.6685  0.4201
 6239UDC     C368621  18.204  11.939  15.439  0.3286  0.7149  0.6569
 6239UDC     C468622  18.230  11.889  15.292  1.1958 -0.1577 -0.2665
 6239UDC     C568623  18.332  11.778  15.289  0.0078  0.1981 -0.6389
 6239UDC     C668624  18.285  11.636  15.338 -0.7176  0.7951 -0.3725
 6239UDC     C768625  18.174  11.572  15.252 -0.1809 -0.9813 -0.7211
 6239UDC     C868626  18.113  11.439  15.313 -1.5217 -0.1120  0.2182
 6239UDC     C968627  18.073  11.348  15.197 -0.6237  0.0281 -0.2517
 6239UDC    C1068628  18.068  11.201  15.219  0.6543  0.5863  0.5963
 6239UDC    C1168629  18.199  11.121  15.206  0.0048  0.7445 -0.1784
 6240UDC     C168630  17.454   0.931   6.273 -0.1767 -1.1717 -0.6779
 6240UDC     C268631  17.378   0.801   6.264  0.2789  0.0684 -1.1031
 6240UDC     C368632  17.290   0.781   6.137 -1.1051 -0.8184  0.6664
 6240UDC     C468633  17.222   0.653   6.110 -0.1721 -0.1125  0.1047
 6240UDC     C568634  17.165   0.639   5.968 -0.0404  1.2536 -0.4840
 6240UDC     C668635  17.090   0.507   5.942 -0.0258 -0.7261  0.2917
 6240UDC     C768636  16.974   0.509   5.838 -0.3154 -0.5546 -0.0587
 6240UDC     C868637  16.985   0.551   5.694  0.1508  0.2765  1.4318
 6240UDC     C968638  16.870   0.510   5.600 -0.2688  0.0236 -0.9914
 6240UDC    C1068639  16.871   0.557   5.457  0.2968 -0.0336  0.4360
 6240UDC    C1168640  16.884   0.708   5.457 -0.0990 -0.1375  0.3410
 6241UDC     C168641   3.878  12.002   5.487  0.1051  0.3745 -0.2257
 6241UDC     C268642   3.961  11.902   5.400  0.3048  0.4393 -0.2796
 6241UDC     C368643   3.946  11.759   5.462  0.9661  1.0804 -1.4440
 6241UDC     C468644   3.841  11.663   5.407  0.0794 -0.2460  0.8050
 6241UDC     C568645   3.899  11.529   5.365 -0.3492 -0.3360 -0.1728
 6241UDC     C668646   3.845  11.442   5.250 -0.8872  0.5063  0.5463
 6241UDC     C768647   3.933  11.333   5.197 -0.4159 -0.3112  0.7824
 6241UDC     C868648   4.083  11.360   5.195  0.2362  1.1409 -0.2138
 6241UDC     C968649   4.171  11.239   5.154 -0.4391  0.3204 -0.1951
 6241UDC    C1068650   4.192  11.108   5.236  0.8715 -0.9649 -0.2661
 6241UDC    C1168651   4.212  10.974   5.155  0.2196 -0.2344 -1.0405
 6242UDC     C168652  18.023  17.180  17.999  0.2839  1.1217  0.2402
 6242UDC     C268653  18.062  17.220  18.143  0.8018  0.1981  0.2965
 6242UDC     C368654  17.951  17.243  18.247  0.5225 -0.5655 -0.5447
 6242UDC     C468655  18.000  17.288  18.389 -0.1707  0.3669  0.6248
 6242UDC     C568656  17.891  17.268  18.492 -1.4085 -0.8124 -0.9537
 6242UDC     C668657  17.904  17.367  18.614  1.0924  0.9195 -0.8115
 6242UDC     C768658  17.797  17.327  18.718 -0.7526  0.2943 -0.0413
 6242UDC     C868659  17.661  17.351  18.651 -1.3853 -0.1584 -0.6596
 6242UDC     C968660  17.542  17.304  18.733 -0.7382  0.1890  0.1469
 6242UDC    C1068661  17.418  17.352  18.668  0.3458  0.0158  0.6037
 6242UDC    C1168662  17.405  17.506  18.643 -0.8357  0.3897 -1.2058
 6243UDC     C168663  12.185   1.748   8.517  0.2616 -0.0986  0.3351
 6243UDC     C268664  12.289   1.643   8.494  0.7565  1.5137  0.8373
 6243UDC     C368665  12.350   1.615   8.630 -1.2779  0.4442  0.0385
 6243UDC     C468666  12.460   1.502   8.598  0.1023  1.2020  0.1390
 6243UDC     C568667  12.434   1.381   8.689 -0.9010  0.3229 -0.3993
 6243UDC     C668668  12.532   1.262   8.687  0.9724  0.4278 -0.5351
 6243UDC     C768669  12.461   1.148   8.606  0.2347 -0.0620  0.2346
 6243UDC     C868670  12.326   1.103   8.666 -0.2049 -1.0834 -0.7158
 6243UDC     C968671  12.235   1.035   8.564  0.5808 -0.1913 -1.3453
 6243UDC    C1068672  12.237   0.884   8.578 -0.3426 -0.4753 -0.2785
 6243UDC    C1168673  12.243   0.826   8.721 -0.0024 -0.1115 -0.5895
 6244UDC     C168674  17.293  17.567  19.329 -0.4497  0.1804 -0.0659
 6244UDC     C268675  17.262  17.604  19.184  0.4406  0.5129 -0.9698
 6244UDC     C368676  17.128  17.690  19.162  0.5173 -0.3092 -0.8415
 6244UDC     C468677  16.996  17.608  19.186  0.2700  0.2882 -0.4648
 6244UDC     C568678  16.856  17.667  19.172 -0.5052 -0.0029  0.4169
 6244UDC     C668679  16.735  17.582  19.217 -0.1919 -0.1403  0.6447
 6244UDC     C768680  16.733  17.433  19.221  0.4961 -0.0945 -0.3625
 6244UDC     C868681  16.631  17.386  19.325 -0.2446 -0.3633 -0.1161
 6244UDC     C968682  16.614  17.236  19.328 -0.3126  0.3116 -1.2251
 6244UDC    C1068683  16.734  17.160  19.380  0.8713  2.4332  0.2464
 6244UDC    C1168684  16.713  17.005  19.370 -0.1756 -0.2048  0.3429
 6245UDC     C168685  17.731   4.962  12.077  0.4655 -0.1442  0.0532
 6245UDC     C268686  17.646   5.071  12.003  0.4330 -0.4281 -0.7433
 6245UDC     C368687  17.573   5.180  12.099 -0.4047  0.5867  0.2259
 6245UDC     C468688  17.512   5.296  12.021  0.5801 -0.2992  0.1503
 6245UDC     C568689  17.425   5.383  12.118  1.2029 -0.2035  0.8264
 6245UDC     C668690  17.383   5.533  12.082  0.8397  1.9914  0.4238
 6245UDC     C768691  17.395   5.636  12.193 -0.2566 -0.3341 -1.0764
 6245UDC     C868692  17.415   5.774  12.152 -0.4105 -0.0934  1.6882
 6245UDC     C968693  17.435   5.873  12.264 -0.6463  0.5528 -0.6102
 6245UDC    C1068694  17.508   6.005  12.239 -0.5055 -0.2751 -0.6340
 6245UDC    C1168695  17.506   6.096  12.374  0.8848  0.0466 -0.3089
 6246UDC     C168696   8.209  14.445  10.136 -0.0269  0.9775  0.0964
 6246UDC     C268697   8.193  14.308  10.203 -1.0546  0.7724  0.0033
 6246UDC     C368698   8.311  14.224  10.259  0.5202  0.0210  0.3463
 6246UDC     C468699   8.237  14.087  10.270 -0.5902 -0.0306 -0.1925
 6246UDC     C568700   8.211  14.042  10.127 -0.2295  0.5416 -0.6093
 6246UDC     C668701   8.161  13.898  10.135  0.1097  0.5119 -0.4020
 6246UDC     C768702   8.109  13.826  10.007  0.2243 -1.0159  0.5427
 6246UDC     C868703   8.020  13.707  10.046 -0.2455  0.0559 -0.4364
 6246UDC     C968704   8.101  13.577  10.050 -1.1686 -0.2454  0.3480
 6246UDC    C1068705   8.073  13.504   9.923  0.2500  0.6180  1.0663
 6246UDC    C1168706   7.933  13.455   9.878 -0.4151  0.4831  0.6986
 6247UDC     C168707  11.932  14.425  12.821 -0.2025  0.1480 -0.8441
 6247UDC     C268708  11.900  14.276  12.811  0.4055 -0.5675  0.4214
 6247UDC     C368709  11.810  14.212  12.913 -0.2749 -1.1417 -0.6846
 6247UDC     C468710  11.885  14.153  13.035  0.6120 -0.5988 -0.6863
 6247UDC     C568711  11.794  14.120  13.153  0.5602  1.0422  0.6080
 6247UDC     C668712  11.777  14.248  13.238 -0.0849 -0.2774 -0.0807
 6247UDC     C768713  11.684  14.246  13.356 -0.2109 -0.3920 -0.1690
 6247UDC     C868714  11.715  14.373  13.444 -0.7233  0.5403  1.0009
 6247UDC     C968715  11.639  14.496  13.405  1.3565  0.2102 -0.9509
 6247UDC    C1068716  11.490  14.500  13.457 -0.2887  1.2374 -0.3717
 6247UDC    C1168717  11.395  14.545  13.344 -0.4911  1.1056  1.2544
 6248UDC     C168718   5.201   4.201   5.873  0.0717  0.4951 -0.1749
 6248UDC     C268719   5.245   4.270   6.005 -0.6726  0.8096 -0.9465
 6248UDC     C368720   5.310   4.410   5.969  0.4200  0.3715  0.2961
 6248UDC     C468721   5.352   4.482   6.096 -0.1182 -1.6176 -0.5057
 6248UDC     C568722   5.343   4.638   6.073  0.2772  0.6408 -1.1081
 6248UDC     C668723   5.230   4.721   6.137 -0.4064 -0.1335  1.1267
 6248UDC     C768724   5.255   4.874   6.129 -1.3579  0.5818 -0.0495
 6248UDC     C868725   5.308   4.923   5.992  0.5319  0.6689 -0.6364
 6248UDC     C968726   5.239   5.059   5.954 -0.4995  0.0178 -0.7358
 6248UDC    C1068727   5.284   5.132   5.829  0.6937  0.1599  0.9628
 6248UDC    C1168728   5.240   5.057   5.706  0.0924 -0.8315  0.7689
 6249UDC     C168729   7.252   4.269  11.680 -0.7831  0.1222 -0.1316
 6249UDC     C268730   7.302   4.167  11.774 -0.0995 -1.7901  0.8562
 6249UDC     C368731   7.184   4.140  11.876 -0.8035  0.7054  0.1442
 6249UDC     C468732   7.198   4.003  11.935  0.7720  0.7944 -0.0205
 6249UDC     C568733   7.087   3.905  11.899 -0.3702  0.9650  0.7013
 6249UDC     C668734   7.062   3.828  12.029  0.5291  0.5778  0.1580
 6249UDC     C768735   6.934   3.740  12.014 -0.3867  0.4365  0.8473
 6249UDC     C868736   6.938   3.624  11.920 -0.0340 -0.2443  0.1175
 6249UDC     C968737   7.029   3.503  11.942 -0.3805 -0.2763 -1.0062
 6249UDC    C1068738   7.019   3.384  11.845  0.3949 -1.0738 -0.2886
 6249UDC    C1168739   7.064   3.258  11.922  0.4593 -0.2966  0.6335
 6250UDC     C168740   6.983   1.317  12.371  1.0165  0.1226  0.2944
 6250UDC     C268741   6.996   1.359  12.523  0.7582  0.0997  0.4873
 6250UDC     C368742   7.093   1.461  12.587 -0.0434  0.0401 -0.4285
 6250UDC     C468743   7.075   1.465  12.742  0.2437  1.2770 -0.4170
 6250UDC     C568744   6.937   1.514  12.789  0.6909  0.1581 -0.6384
 6250UDC     C668745   6.914   1.515  12.946  0.1432  0.7638 -0.1189
 6250UDC     C768746   6.783   1.588  12.981  0.1138  0.4283 -0.0295
 6250UDC     C868747   6.673   1.504  13.048  1.3593  0.0074  0.2050
 6250UDC     C968748   6.550   1.590  13.081  0.6701 -0.0486 -0.8655
 6250UDC    C1068749   6.495   1.669  12.955 -0.7067  0.7095 -0.2006
 6250UDC    C1168750   6.367   1.609  12.902  0.0923 -0.4938 -0.1445
 6251UDC     C168751  11.199  12.890  11.881  0.3330 -0.3834 -0.3592
 6251UDC     C268752  11.161  12.904  12.023  0.2205  0.6179  0.1737
 6251UDC     C368753  11.243  12.799  12.108 -0.5456  0.2988 -0.0013
 6251UDC     C468754  11.181  12.658  12.102 -0.3476 -0.2139 -0.3251
 6251UDC     C568755  11.218  12.541  12.198  0.1049  0.0724  0.6215
 6251UDC     C668756  11.144  12.415  12.144  0.0773 -0.0680 -1.0928
 6251UDC     C768757  11.195  12.344  12.026 -0.3742  1.1234  0.2271
 6251UDC     C868758  11.103  12.224  11.981  0.5523  0.7157 -0.2006
 6251UDC     C968759  11.164  12.160  11.855 -0.7204 -0.1493  0.6629
 6251UDC    C1068760  11.085  12.184  11.726  0.4848 -0.6149  0.3810
 6251UDC    C1168761  10.967  12.092  11.684 -0.4096 -0.1097  0.1086
 6252UDC     C168762  11.420   2.330   2.467 -0.5695  0.4402 -0.1613
 6252UDC     C268763  11.488   2.444   2.551  0.7335  0.1603 -0.3647
 6252UDC     C368764  11.470   2.422   2.704  0.4633 -0.1973 -1.1870
 6252UDC     C468765  11.344   2.343   2.735 -0.3227  0.4147 -0.2266
 6252UDC     C568766  11.271   2.405   2.859 -0.1172 -0.3404 -0.1234
 6252UDC     C668767  11.226   2.545   2.827 -1.3591 -0.5208 -0.3274
 6252UDC     C768768  11.089   2.552   2.761  0.8554 -0.8421 -1.0942
 6252UDC     C868769  11.065   2.521   2.611  0.1518 -0.1018 -0.4989
 6252UDC     C968770  11.095   2.646   2.524  0.2264 -1.2669 -0.3802
 6252UDC    C1068771  11.099   2.619   2.368 -1.4203  0.1317  0.1806
 6252UDC    C1168772  11.129   2.751   2.300  1.0402  0.5110  0.6451
 6253UDC     C168773   7.389   2.832  19.949 -0.2982 -0.4294  0.2904
 6253UDC     C268774   7.452   2.750  20.057  0.5839  0.3524 -0.3475
 6253UDC     C368775   7.583   2.800  20.111  0.5083  1.0786 -0.6410
 6253UDC     C468776   7.706   2.703  20.105  0.5483  0.7384 -0.6994
 6253UDC     C568777   7.769   2.645  20.235  0.8759 -0.3231  0.6879
 6253UDC     C668778   7.856   2.761  20.291  0.7745  0.7005  0.5432
 6253UDC     C768779   7.985   2.697  20.344  0.0141 -1.9314  0.2880
 6253UDC     C868780   8.104   2.796  20.354  1.3477 -0.7348 -0.8613
 6253UDC     C968781   8.207   2.802  20.240 -0.2985  0.4170  0.4574
 6253UDC    C1068782   8.281   2.932  20.245  0.8770 -1.0273  0.4724
 6253UDC    C1168783   8.350   2.952  20.383  0.3919  0.9572 -0.0711
 6254UDC     C168784   8.589   7.476   3.845  0.1670  1.1092 -1.1316
 6254UDC     C268785   8.608   7.407   3.980  0.0197 -1.0456 -0.5356
 6254UDC     C368786   8.655   7.262   3.973  0.0717  0.1077 -0.5357
 6254UDC     C468787   8.557   7.169   3.886 -0.6584 -0.5170  0.3157
 6254UDC     C568788   8.551   7.015   3.902 -0.3565  0.6478 -0.1427
 6254UDC     C668789   8.454   6.937   3.821  0.1231  0.6140 -0.9596
 6254UDC     C768790   8.479   6.937   3.668  0.1619  0.7089  0.5655
 6254UDC     C868791   8.417   6.811   3.606 -0.4852  0.6200 -0.1003
 6254UDC     C968792   8.319   6.858   3.504 -0.1515 -0.2573  1.4912
 6254UDC    C1068793   8.272   6.761   3.391 -0.8147  0.2720 -0.3477
 6254UDC    C1168794   8.204   6.624   3.416  1.5869 -0.4026 -1.0560
 6255UDC     C168795  13.193  19.122  13.230 -0.3509  0.5745  0.6269
 6255UDC     C268796  13.099  19.010  13.289  0.0126 -1.3973 -0.0980
 6255UDC     C368797  12.996  18.989  13.173 -0.0562 -0.1130 -0.3154
 6255UDC     C468798  12.905  19.113  13.134 -0.7002  0.6316  0.1701
 6255UDC     C568799  12.771  19.113  13.203  0.2037 -1.0988 -0.2005
 6255UDC     C668800  12.684  18.979  13.189 -0.6501 -0.3421  0.1295
 6255UDC     C768801  12.551  18.972  13.268  0.6674 -0.2065 -0.2289
 6255UDC     C868802  12.432  18.971  13.169 -0.9601  0.4919 -0.4965
 6255UDC     C968803  12.406  19.101  13.078  0.4217  0.2356 -0.9352
 6255UDC    C1068804  12.275  19.106  12.992  1.0450 -0.0727 -0.1014
 6255UDC    C1168805  12.239  19.254  12.984  0.3481 -0.1934 -0.2236
 6256UDC     C168806   6.588  10.477  11.917 -0.2138 -0.0365  0.5835
 6256UDC     C268807   6.693  10.597  11.919  0.5446  0.6274 -0.4424
 6256UDC     C368808   6.827  10.536  11.875 -0.4346  0.1106  0.2038
 6256UDC     C468809   6.943  10.524  11.976 -0.9837 -0.2989  0.0551
 6256UDC     C568810   7.004  10.644  12.045  0.4497 -0.0995  0.8939
 6256UDC     C668811   7.120  10.612  12.139  0.5495 -0.0092  0.9877
 6256UDC     C768812   7.176  10.744  12.195  0.6051 -0.7203  1.2007
 6256UDC     C868813   7.295  10.720  12.287 -0.4070 -1.0667 -0.1172
 6256UDC     C968814   7.431  10.684  12.237 -0.1236  0.0311 -0.4729
 6256UDC    C1068815   7.516  10.651  12.372  1.4788 -0.2091 -0.9289
 6256UDC    C1168816   7.491  10.761  12.482  0.2124 -1.6658  0.6079
 6257UDC     C168817  13.063  13.002  16.767  0.3927 -0.2031 -0.6541
 6257UDC     C268818  13.004  13.022  16.627  0.2317 -0.0560  0.3979
 6257UDC     C368819  12.907  12.921  16.556 -0.2527  0.8336  0.9200
 6257UDC     C468820  12.764  12.925  16.608 -0.5028 -0.6921  0.7978
 6257UDC     C568821  12.676  12.812  16.561  0.4584  0.3625 -0.4911
 6257UDC     C668822  12.679  12.768  16.419  1.1849 -0.0715  0.0307
 6257UDC     C768823  12.563  12.668  16.383  0.1466 -0.5174 -0.0382
 6257UDC     C868824  12.559  12.615  16.241  0.2649  0.7994  0.0549
 6257UDC     C968825  12.500  12.685  16.112 -0.0389 -0.0798 -0.4111
 6257UDC    C1068826  12.492  12.601  15.989 -0.3532 -0.0583  0.2928
 6257UDC    C1168827  12.417  12.671  15.876 -0.6059 -0.3022  0.6151
 6258UDC     C168828  13.936  19.496   4.166  0.2619 -0.7205 -1.4439
 6258UDC     C268829  14.017  19.622   4.146  0.3159  0.1243 -0.9378
 6258UDC     C368830  13.970  19.701   4.026 -0.3210  0.3375 -0.4500
 6258UDC     C468831  14.019  19.617   3.905  1.9770 -1.1399 -1.3750
 6258UDC     C568832  14.001  19.689   3.770  0.5477  0.4452 -0.5865
 6258UDC     C668833  14.098  19.800   3.735  1.2749  0.2056 -1.2076
 6258UDC     C768834  14.240  19.767   3.684 -0.2362  0.7495 -0.8238
 6258UDC     C868835  14.335  19.889   3.673 -0.5547  0.1456  0.5107
 6258UDC     C968836  14.343  19.991   3.788 -0.0112 -0.5441 -0.4694
 6258UDC    C1068837  14.438  20.106   3.755 -0.5415  0.4236  0.6127
 6258UDC    C1168838  14.399  20.168   3.617 -0.4230  0.5831 -0.3251
 6259UDC     C168839  13.364   8.418   0.517 -0.5986  0.3168  0.4976
 6259UDC     C268840  13.292   8.538   0.452  1.0031  0.5571 -0.7277
 6259UDC     C368841  13.304   8.680   0.521  0.6691  0.2920 -0.0110
 6259UDC     C468842  13.251   8.808   0.454 -0.3161  0.3809 -0.0535
 6259UDC     C568843  13.241   8.925   0.549  0.4441  0.0196 -0.1059
 6259UDC     C668844  13.239   9.059   0.477 -0.1064 -0.2784 -0.7823
 6259UDC     C768845  13.192   9.050   0.332  0.4289 -0.6018 -0.0121
 6259UDC     C868846  13.238   9.186   0.272 -0.0792 -0.2570  0.4970
 6259UDC     C968847  13.251   9.214   0.123 -0.7070  0.2437 -0.3583
 6259UDC    C1068848  13.337   9.338   0.083  0.2348  0.0853  0.6071
 6259UDC    C1168849  13.295   9.379  -0.058  0.8625 -0.2725  0.5172
 6260UDC     C168850  14.163   4.210   4.340 -0.0296  0.1902 -0.8567
 6260UDC     C268851  14.223   4.341   4.359 -0.6342 -1.2263 -0.5295
 6260UDC     C368852  14.111   4.416   4.285  0.5717 -0.3330  0.8867
 6260UDC     C468853  14.125   4.557   4.233 -0.7286 -1.1266  0.1653
 6260UDC     C568854  14.024   4.658   4.274 -0.0018  0.6097 -0.0893
 6260UDC     C668855  14.080   4.803   4.280  1.6110 -0.3413 -1.4049
 6260UDC     C768856  14.010   4.889   4.393  0.1317  1.1754  0.4643
 6260UDC     C868857  13.857   4.919   4.378 -0.1528 -0.1715 -0.5973
 6260UDC     C968858  13.771   4.983   4.491 -0.3199 -0.1088 -0.5230
 6260UDC    C1068859  13.648   4.910   4.548  0.7948  0.5650  0.0333
 6260UDC    C1168860  13.513   4.939   4.469 -1.2847  0.4900 -0.5374
 6261UDC     C168861   9.859  18.193  11.000 -0.3615  0.4440  0.0006
 6261UDC     C268862   9.995  18.151  10.953  0.1469  0.7836  1.2772
 6261UDC     C368863  10.034  18.170  10.811 -0.1645 -0.6132 -0.1386
 6261UDC     C468864  10.149  18.083  10.766 -1.3739  0.7490 -0.7173
 6261UDC     C568865  10.297  18.135  10.806  0.6377 -0.4036 -0.7433
 6261UDC     C668866  10.406  18.046  10.741 -0.9461  0.2727  0.7952
 6261UDC     C768867  10.445  17.920  10.817  0.6144  1.7795  1.0319
 6261UDC     C868868  10.556  17.838  10.757  0.1687  0.0779 -0.4659
 6261UDC     C968869  10.634  17.771  10.873  0.3551 -0.7313  0.6806
 6261UDC    C1068870  10.536  17.655  10.921  0.1396  0.3442 -1.4275
 6261UDC    C1168871  10.581  17.577  11.041  0.0200 -0.3055 -0.4014
 6262UDC     C168872   8.393  11.587   3.750 -0.3963 -0.3216 -0.8797
 6262UDC     C268873   8.275  11.491   3.728  0.5308  0.0757  0.0316
 6262UDC     C368874   8.147  11.569   3.678 -0.1252  0.5033 -0.6208
 6262UDC     C468875   8.009  11.504   3.695 -0.8980  0.2730  0.3958
 6262UDC     C568876   7.893  11.603   3.720  0.1014  0.4856  0.0291
 6262UDC     C668877   7.794  11.609   3.844 -1.2837 -0.0343  0.1167
 6262UDC     C768878   7.710  11.742   3.861  0.0801 -0.8222 -0.5230
 6262UDC     C868879   7.580  11.737   3.940 -0.6134 -0.9695  0.9270
 6262UDC     C968880   7.613  11.723   4.096  0.2387  0.7341  0.2014
 6262UDC    C1068881   7.629  11.582   4.157  0.1245  0.0281  0.4076
 6262UDC    C1168882   7.738  11.575   4.272 -0.6992 -0.1699  0.1736
 6263UDC     C168883   2.438   6.273  17.183  0.0676  0.4698  0.2194
 6263UDC     C268884   2.445   6.305  17.332 -0.1324 -0.3132  0.0836
 6263UDC     C368885   2.375   6.188  17.414  0.2871  0.3037 -0.7078
 6263UDC     C468886   2.238   6.228  17.484  0.7431 -0.4531 -0.3573
 6263UDC     C568887   2.167   6.333  17.396  0.6431  0.2843  1.1902
 6263UDC     C668888   2.027   6.375  17.433  0.4620  0.6452  0.5021
 6263UDC     C768889   1.902   6.290  17.396  0.3585 -0.0297 -0.1006
 6263UDC     C868890   1.850   6.323  17.251 -1.3653  1.2444 -0.2482
 6263UDC     C968891   1.940   6.274  17.132  0.4509  0.1077 -0.4625
 6263UDC    C1068892   1.901   6.285  16.982 -0.4544  0.6975 -1.5371
 6263UDC    C1168893   1.988   6.207  16.884  0.4360 -0.6058 -0.0080
 6264UDC     C168894  14.931   2.861   2.565  0.0920  0.8338  1.1065
 6264UDC     C268895  14.784   2.835   2.538  0.0925  0.6755 -0.9420
 6264UDC     C368896  14.729   2.918   2.416  0.7362 -0.3062 -0.1962
 6264UDC     C468897  14.740   2.837   2.285 -0.1569 -0.0079 -0.6680
 6264UDC     C568898  14.735   2.935   2.166  0.1459  0.4449 -0.0766
 6264UDC     C668899  14.604   3.012   2.171  0.4366  0.2464 -0.6719
 6264UDC     C768900  14.609   3.143   2.096 -1.0548 -0.8805 -0.2068
 6264UDC     C868901  14.468   3.201   2.119  1.0713  0.2737  0.7053
 6264UDC     C968902  14.471   3.357   2.111  0.5840  0.9793  0.0653
 6264UDC    C1068903  14.325   3.412   2.099 -0.4703  0.6166 -0.5154
 6264UDC    C1168904  14.287   3.556   2.046  0.7114 -0.9451  0.2737
 6265UDC     C168905   5.565  16.332  13.795 -0.2468  0.2775 -1.3340
 6265UDC     C268906   5.640  16.290  13.667  0.2157  0.3005  0.3551
 6265UDC     C368907   5.780  16.349  13.665  0.3937 -0.6221  0.1769
 6265UDC     C468908   5.778  16.496  13.619  0.0098 -1.1225 -0.5336
 6265UDC     C568909   5.886  16.588  13.678 -0.9460  0.3339  0.2133
 6265UDC     C668910   6.023  16.537  13.633  0.1964  0.5373 -0.7093
 6265UDC     C768911   6.134  16.620  13.707  0.6891  0.1689 -0.4889
 6265UDC     C868912   6.155  16.614  13.861  0.2602 -0.4245 -1.5061
 6265UDC     C968913   6.292  16.669  13.918  0.0465 -0.8713  0.0887
 6265UDC    C1068914   6.299  16.638  14.073 -1.0097 -0.8627  0.6101
 6265UDC    C1168915   6.186  16.686  14.171  0.2074 -0.0056  0.1682
 6266UDC     C168916  17.317   6.099   8.270 -1.2476 -1.2675  0.1951
 6266UDC     C268917  17.294   6.197   8.383  0.0503 -0.1006 -0.6573
 6266UDC     C368918  17.336   6.341   8.404  0.1711  0.3418  0.6872
 6266UDC     C468919  17.322   6.387   8.550 -1.2700 -0.3814 -0.4607
 6266UDC     C568920  17.428   6.326   8.643 -0.4210 -0.6468  0.1854
 6266UDC     C668921  17.582   6.359   8.622  0.1498  0.1534 -0.5869
 6266UDC     C768922  17.674   6.292   8.721  0.4370  0.1042 -0.2219
 6266UDC     C868923  17.719   6.148   8.692  0.7367  0.3167 -0.6178
 6266UDC     C968924  17.754   6.112   8.546  0.5454 -0.7628 -0.3248
 6266UDC    C1068925  17.873   6.184   8.486 -1.9193 -0.0945 -0.2586
 6266UDC    C1168926  18.000   6.140   8.568  0.8371 -0.0404 -0.1006
 6267UDC     C168927  14.126  12.125  13.177 -0.7811  0.5827  0.9106
 6267UDC     C268928  14.010  12.159  13.269 -0.4224  0.6928 -1.2758
 6267UDC     C368929  14.028  12.306  13.313  0.2526  0.7259  0.6204
 6267UDC     C468930  14.137  12.319  13.417  0.6501  0.5470 -1.2026
 6267UDC     C568931  14.238  12.436  13.422 -1.6968 -1.1450 -0.0997
 6267UDC     C668932  14.369  12.434  13.344  0.5377  0.0599  0.4762
 6267UDC     C768933  14.452  12.567  13.357  0.4423  0.7991  0.1034
 6267UDC     C868934  14.481  12.575  13.510 -0.3610 -0.9979  0.7096
 6267UDC     C968935  14.581  12.698  13.529  0.2578  0.0843  0.3908
 6267UDC    C1068936  14.725  12.652  13.567  0.5836  0.8731 -1.2444
 6267UDC    C1168937  14.829  12.763  13.582 -0.0576 -0.0721  0.6676
 6268UDC     C168938  15.993   6.428   0.091 -0.1867 -0.3599  0.7225
 6268UDC     C268939  15.886   6.329   0.052 -1.0223  0.1943  0.0557
 6268UDC     C368940  15.915   6.205  -0.031  0.6141 -0.0294  0.0898
 6268UDC     C468941  15.802   6.170  -0.138 -0.3832 -0.3601  0.7608
 6268UDC     C568942  15.809   6.265  -0.257  0.9833 -0.4163 -1.0336
 6268UDC     C668943  15.688   6.279  -0.357  0.4810  0.2119 -1.2736
 6268UDC     C768944  15.608   6.405  -0.325  0.3213 -0.6589 -0.3184
 6268UDC     C868945  15.678   6.536  -0.284  1.0765  1.5374 -0.2135
 6268UDC     C968946  15.583   6.631  -0.202 -0.0550 -0.1062 -0.5182
 6268UDC    C1068947  15.487   6.701  -0.304 -0.9284  0.9048  0.6700
 6268UDC    C1168948  15.360   6.744  -0.244  0.0416 -0.8322 -0.1258
 6269UDC     C168949   9.223   9.235   2.437 -0.4220  0.2757 -0.6903
 6269UDC     C268950   9.295   9.380   2.428 -0.0858  0.2740 -0.1879
 6269UDC     C368951   9.200   9.500   2.403 -0.2756  0.0470  0.7985
 6269UDC     C468952   9.103   9.477   2.291 -0.1236 -0.0047  0.2939
 6269UDC     C568953   9.072   9.599   2.199 -0.5513  0.3312 -0.0751
 6269UDC     C668954   9.081   9.748   2.239  0.6780  0.6588 -0.7896
 6269UDC     C768955   9.016   9.838   2.136 -1.0875  0.0265  0.0502
 6269UDC     C868956   9.127   9.908   2.047 -0.4164  0.0540 -0.1670
 6269UDC     C968957   9.209   9.810   1.959  0.2966 -0.1495  0.2223
 6269UDC    C1068958   9.248   9.878   1.827 -1.1990  0.7459  0.4925
 6269UDC    C1168959   9.347   9.795   1.750  0.1279  0.0440  0.2397
 6270UDC     C168960  11.487   1.542  10.034 -0.2848  1.2828 -0.7438
 6270UDC     C268961  11.583   1.657  10.028  0.4943 -0.9179 -0.1115
 6270UDC     C368962  11.715   1.629   9.958 -0.4238  0.0900  0.7487
 6270UDC     C468963  11.833   1.713  10.015  0.5682 -0.3047  0.1739
 6270UDC     C568964  11.945   1.738   9.914  0.4490  0.3202 -0.3478
 6270UDC     C668965  12.080   1.791   9.953  0.1580 -0.3853  0.7366
 6270UDC     C768966  12.197   1.696   9.916 -0.0675 -0.1763 -0.2826
 6270UDC     C868967  12.345   1.736   9.937  0.8637  0.3877 -0.4941
 6270UDC     C968968  12.425   1.634  10.016  0.2966 -1.0977 -0.6458
 6270UDC    C1068969  12.557   1.610   9.941  0.3741  0.9710 -0.1825
 6270UDC    C1168970  12.631   1.486  10.009  0.8183 -0.8588 -0.0852
 6271UDC     C168971   2.385  19.380  17.878  0.5240 -0.6303  0.3261
 6271UDC     C268972   2.310  19.254  17.917  0.9417  0.1677  0.2528
 6271UDC     C368973   2.365  19.190  18.043  0.4325  0.1139  0.4420
 6271UDC     C468974   2.302  19.063  18.089 -0.4593  0.2885  0.0741
 6271UDC     C568975   2.306  19.049  18.244  0.1355 -0.3933  0.5347
 6271UDC     C668976   2.451  19.043  18.304  0.5294 -0.3262 -0.3775
 6271UDC     C768977   2.492  19.121  18.433  1.5198  1.0248  0.3097
 6271UDC     C868978   2.627  19.172  18.419 -0.2528  0.3621  0.1897
 6271UDC     C968979   2.661  19.263  18.539 -0.4762  0.4138 -0.8477
 6271UDC    C1068980   2.787  19.345  18.498  0.3678  0.3827 -0.3336
 6271UDC    C1168981   2.917  19.262  18.512  0.1517  1.3325  0.6145
 6272UDC     C168982  11.391  17.833  13.487 -0.1733  0.0021  0.4504
 6272UDC     C268983  11.310  17.698  13.502 -0.5728  0.6748 -1.1542
 6272UDC     C368984  11.323  17.610  13.381 -0.3183  0.6051 -1.0528
 6272UDC     C468985  11.266  17.471  13.399 -0.2453  0.6759  0.2705
 6272UDC     C568986  11.291  17.371  13.281  0.1199 -0.1519 -0.4990
 6272UDC     C668987  11.207  17.396  13.148 -0.3307  0.2182  0.2218
 6272UDC     C768988  11.252  17.340  13.012 -0.0593  0.4885 -0.3413
 6272UDC     C868989  11.304  17.197  13.016 -0.6231 -0.2609 -0.4918
 6272UDC     C968990  11.408  17.174  12.907 -0.8259 -0.5461 -0.1803
 6272UDC    C1068991  11.366  17.157  12.760 -0.1307 -0.1862  0.0409
 6272UDC    C1168992  11.405  17.016  12.713 -0.4093  0.2883 -0.8361
 6273UDC     C168993   1.713   7.084  14.330  0.2193 -0.1484 -0.2515
 6273UDC     C268994   1.602   7.179  14.388  0.2954 -0.2612  0.5581
 6273UDC     C368995   1.473   7.100  14.364  1.5479  0.3073 -0.1232
 6273UDC     C468996   1.332   7.150  14.426  0.0788 -0.2936  1.2478
 6273UDC     C568997   1.297   7.288  14.361 -0.8266  0.8522  1.2229
 6273UDC     C668998   1.308   7.404  14.467  0.2012  0.5771  0.2972
 6273UDC     C768999   1.434   7.497  14.461 -0.4391  1.5049  0.6745
 6273UDC     C869000   1.438   7.629  14.524 -0.1753 -0.1611  0.1561
 6273UDC     C969001   1.571   7.678  14.486 -0.6639  0.1841  0.1070
 6273UDC    C1069002   1.603   7.692  14.340  0.5407  0.4435  0.5160
 6273UDC    C1169003   1.745   7.732  14.305 -0.4490 -0.4812  0.1276
 6274UDC     C169004   4.491   0.047  14.746  0.6930  0.8566  0.9361
 6274UDC     C269005   4.340   0.010  14.716  0.7258 -0.2293 -0.5182
 6274UDC     C369006   4.244   0.082  14.814 -0.1443  0.6923 -0.3688
 6274UDC     C469007   4.095   0.034  14.807  0.7032 -0.1915  1.2923
 6274UDC     C569008   4.053  -0.062  14.693  0.1313  1.2600  0.4440
 6274UDC     C669009   4.000   0.007  14.561  0.6152 -0.3273 -1.2011
 6274UDC     C769010   3.886  -0.077  14.498  1.3096 -0.4355 -0.1548
 6274UDC     C869011   3.839  -0.040  14.356 -0.5257 -0.2028  0.2187
 6274UDC     C969012   3.803   0.116  14.350 -0.5936  0.7419  0.1283
 6274UDC    C1069013   3.762   0.148  14.202 -0.5636  0.0152 -1.1310
 6274UDC    C1169014   3.852   0.101  14.086  1.1347  0.2577  0.5613
 6275UDC     C169015  16.392  12.371  18.968 -0.2172  0.6756 -0.3519
 6275UDC     C269016  16.439  12.506  18.902  0.9153 -0.0823  1.5523
 6275UDC     C369017  16.395  12.532  18.752 -0.1066  0.4720  0.0990
 6275UDC     C469018  16.397  12.420  18.648 -0.2176 -1.0117 -0.6278
 6275UDC     C569019  16.380  12.469  18.501 -0.6244  0.2747  0.9374
 6275UDC     C669020  16.372  12.335  18.423  1.1379 -1.3819  0.1109
 6275UDC     C769021  16.503  12.291  18.347  0.5028  0.2830 -0.0525
 6275UDC     C869022  16.492  12.173  18.251 -0.6639 -1.1912 -0.7205
 6275UDC     C969023  16.633  12.143  18.203  0.1402  0.4098  0.0693
 6275UDC    C1069024  16.660  12.001  18.250 -0.9292  0.7559  0.0910
 6275UDC    C1169025  16.563  11.927  18.159  0.0813  0.3678  1.1182
 6276UDC     C169026   4.432   1.372   2.412  0.3785  0.5876 -0.4157
 6276UDC     C269027   4.454   1.510   2.357  0.4070 -0.3502 -0.3798
 6276UDC     C369028   4.481   1.609   2.465  0.0091  0.9037  0.2719
 6276UDC     C469029   4.526   1.744   2.419 -0.3901  0.3057 -0.3955
 6276UDC     C569030   4.627   1.712   2.305 -0.1973  1.2581  0.0741
 6276UDC     C669031   4.684   1.836   2.236 -0.3259  1.2987  0.4308
 6276UDC     C769032   4.770   1.935   2.316 -0.6539  0.5236 -1.3926
 6276UDC     C869033   4.705   2.066   2.365 -0.2749 -0.4487  0.0065
 6276UDC     C969034   4.654   2.152   2.250  0.8421  0.1615 -1.1048
 6276UDC    C1069035   4.590   2.287   2.277 -0.4949 -0.3208  1.0263
 6276UDC    C1169036   4.486   2.300   2.384 -0.0012  0.6676 -0.0681
 6277UDC     C169037   9.216  18.700  19.860  0.2946 -0.1698 -0.5205
 6277UDC     C269038   9.154  18.606  19.754 -0.8934 -0.0383 -0.2040
 6277UDC     C369039   9.212  18.462  19.769 -0.4989 -1.2345  0.0503
 6277UDC     C469040   9.357  18.465  19.711  0.4729 -0.2370 -0.9184
 6277UDC     C569041   9.434  18.340  19.675 -0.6475  0.3825 -0.5916
 6277UDC     C669042   9.591  18.375  19.681  0.6330  0.7162  1.2597
 6277UDC     C769043   9.650  18.430  19.809 -0.8042 -0.1548  0.1449
 6277UDC     C869044   9.612  18.357  19.941  0.1039 -1.3531  0.6127
 6277UDC     C969045   9.647  18.451  20.054  0.7008  0.0080  0.4342
 6277UDC    C1069046   9.592  18.399  20.180  0.5612 -0.0970  0.7542
 6277UDC    C1169047   9.646  18.459  20.315 -0.1039  0.1407  0.6825
 6278UDC     C169048   1.693   8.106  18.543 -0.2653 -0.3182 -0.0632
 6278UDC     C269049   1.614   8.051  18.653 -0.0141  1.5939 -0.0311
 6278UDC     C369050   1.646   7.897  18.674  0.0596  0.6909 -0.2249
 6278UDC     C469051   1.542   7.801  18.727 -0.5099 -0.3182 -0.8656
 6278UDC     C569052   1.591   7.660  18.702  0.5748  0.2120  1.0303
 6278UDC     C669053   1.717   7.636  18.776  0.8426 -0.8381 -0.5626
 6278UDC     C769054   1.771   7.497  18.748 -0.6164  0.2382  0.3143
 6278UDC     C869055   1.907   7.445  18.801 -0.3303  0.1665 -0.5226
 6278UDC     C969056   2.004   7.374  18.698  0.1082  0.0830 -0.1425
 6278UDC    C1069057   2.126   7.313  18.755 -0.2380 -0.2146 -0.1555
 6278UDC    C1169058   2.213   7.216  18.665 -0.4959 -0.2808  0.5714
 6279UDC     C169059   1.520  10.897  15.640  0.6181 -1.3829 -0.3279
 6279UDC     C269060   1.519  10.839  15.782  0.6145  0.0301 -0.0861
 6279UDC     C369061   1.375  10.824  15.830  0.0483 -0.2941 -0.5677
 6279UDC     C469062   1.350  10.747  15.964  2.0193  0.6297  0.1454
 6279UDC     C569063   1.202  10.718  15.994  0.9030 -0.2776  0.6336
 6279UDC     C669064   1.135  10.621  15.899  0.6109  0.0556 -0.1921
 6279UDC     C769065   1.160  10.472  15.928  0.4537  0.9575  0.7173
 6279UDC     C869066   1.298  10.407  15.897 -0.1886  0.9291  0.1106
 6279UDC     C969067   1.314  10.284  15.989 -1.2887  1.4495  0.6398
 6279UDC    C1069068   1.429  10.184  15.951  0.1901  0.4201  0.8486
 6279UDC    C1169069   1.570  10.237  15.920 -0.0417 -0.3978 -0.6055
 6280UDC     C169070   5.809   2.922  16.115  0.7437 -0.6026 -0.0426
 6280UDC     C269071   5.819   3.050  16.033 -0.2294  0.1187  0.9754
 6280UDC     C369072   5.954   3.114  16.010 -0.0331  0.4203 -0.3071
 6280UDC     C469073   5.942   3.204  15.888  0.2191 -0.3470 -0.3073
 6280UDC     C569074   6.093   3.230  15.859  0.4395 -0.1375 -0.8107
 6280UDC     C669075   6.120   3.334  15.754 -0.8410  0.5359 -0.1269
 6280UDC     C769076   6.211   3.301  15.633 -0.7576  1.3549  0.4239
 6280UDC     C869077   6.190   3.158  15.568  0.4051 -0.0095 -0.0753
 6280UDC     C969078   6.275   3.113  15.450 -0.0872  0.6199 -0.1933
 6280UDC    C1069079   6.226   2.981  15.400  0.2366 -0.3322 -1.1412
 6280UDC    C1169080   6.076   2.972  15.373  0.0246 -0.0124 -1.0151
 6281UDC     C169081  13.100   2.983  15.747 -0.1063 -0.7972 -0.0711
 6281UDC     C269082  13.224   3.039  15.808  0.0577  1.1510 -0.2077
 6281UDC     C369083  13.224   3.182  15.853  0.5291 -1.0894  1.4292
 6281UDC     C469084  13.122   3.281  15.781 -0.4730  0.3159 -0.1803
 6281UDC     C569085  13.120   3.425  15.845 -0.1564 -1.2376  0.3367
 6281UDC     C669086  13.007   3.529  15.842 -0.3684  0.2729  0.2129
 6281UDC     C769087  13.031   3.655  15.764 -0.1230  0.6514 -0.4331
 6281UDC     C869088  12.908   3.749  15.744  0.3438  0.0879  0.5831
 6281UDC     C969089  12.939   3.887  15.681 -0.6415 -0.8870 -0.4393
 6281UDC    C1069090  12.818   3.977  15.728  0.8862  0.4758  0.6017
 6281UDC    C1169091  12.684   3.909  15.717 -0.6147  0.0877 -0.8469
 6282UDC     C169092  16.846   2.796  15.358 -0.6080 -0.3019  0.0566
 6282UDC     C269093  16.940   2.906  15.408 -0.3350 -0.3210 -0.6976
 6282UDC     C369094  16.897   3.055  15.394  0.1121 -1.1313 -0.2656
 6282UDC     C469095  17.007   3.145  15.450 -0.7000 -0.4049  0.3922
 6282UDC     C569096  17.003   3.130  15.596  0.3173  1.2926 -1.0574
 6282UDC     C669097  17.126   3.181  15.664  0.2904  0.2394 -0.1594
 6282UDC     C769098  17.127   3.236  15.806 -0.1242  1.1030 -0.6439
 6282UDC     C869099  17.258   3.301  15.858  1.1269 -0.2662 -0.1610
 6282UDC     C969100  17.248   3.254  16.002 -0.0366  0.5262  0.9586
 6282UDC    C1069101  17.237   3.360  16.111  0.3113 -0.5451  0.4813
 6282UDC    C1169102  17.165   3.330  16.243 -0.5137 -0.3092  0.0117
 6283UDC     C169103  12.728   9.432   5.898  0.4091 -0.1278  0.4607
 6283UDC     C269104  12.869   9.457   5.846 -0.1027  1.3974 -0.9043
 6283UDC     C369105  12.964   9.342   5.885  0.0863 -0.5212  0.3327
 6283UDC     C469106  12.972   9.322   6.036 -0.1499  0.3919 -0.1820
 6283UDC     C569107  13.025   9.452   6.110  0.1900 -0.4811 -0.4882
 6283UDC     C669108  13.148   9.416   6.199 -0.6597 -0.8526 -0.4594
 6283UDC     C769109  13.225   9.541   6.238 -1.7640  0.5640  0.2340
 6283UDC     C869110  13.361   9.519   6.315  1.5350  0.0582  0.0140
 6283UDC     C969111  13.372   9.638   6.408 -0.9773  0.5401 -0.2396
 6283UDC    C1069112  13.413   9.756   6.323 -0.9933 -0.6183  0.9225
 6283UDC    C1169113  13.408   9.889   6.408  0.0541  0.8827 -0.2736
 6284UDC     C169114  19.237   4.031  15.501 -0.1380  0.3235 -0.2897
 6284UDC     C269115  19.323   4.030  15.631 -0.1700  0.1900 -0.3579
 6284UDC     C369116  19.440   4.122  15.610  0.2370 -0.3549 -0.7837
 6284UDC     C469117  19.541   4.102  15.722 -0.3440 -0.6199 -0.4464
 6284UDC     C569118  19.624   4.233  15.739  0.0850  0.7606 -0.3481
 6284UDC     C669119  19.767   4.234  15.694 -0.8229  0.1944 -0.4714
 6284UDC     C769120  19.868   4.339  15.750  1.0917 -0.1872 -0.5354
 6284UDC     C869121  20.012   4.286  15.752 -0.1492  0.9169  0.1307
 6284UDC     C969122  20.102   4.403  15.800 -0.4931  0.2436  0.6874
 6284UDC    C1069123  20.254   4.381  15.792  0.1632  0.0426  0.1266
 6284UDC    C1169124  20.298   4.342  15.645 -1.0270 -0.2560 -0.0065
 6285UDC     C169125  14.208  11.140   6.294 -0.5513 -0.9007  0.1551
 6285UDC     C269126  14.280  11.006   6.317 -1.6051 -0.5759  1.4651
 6285UDC     C369127  14.367  11.026   6.441 -0.0173 -0.2082  0.5230
 6285UDC     C469128  14.437  10.892   6.477  0.1481 -0.0708 -0.1249
 6285UDC     C569129  14.330  10.786   6.506  0.3380  0.1195 -0.5722
 6285UDC     C669130  14.377  10.648   6.552  0.7404 -0.4290  0.7996
 6285UDC     C769131  14.429  10.655   6.693  0.1061 -0.1663 -0.5482
 6285UDC     C869132  14.466  10.521   6.762 -0.1427  0.4101 -0.6031
 6285UDC     C969133  14.580  10.446   6.696 -0.0108  0.9338 -0.2270
 6285UDC    C1069134  14.654  10.339   6.784 -0.1415 -0.0995  0.6470
 6285UDC    C1169135  14.582  10.204   6.760  0.2184  0.6614 -0.0194
 6286UDC     C169136   8.526  11.762  15.467 -0.4329  0.4673  0.2501
 6286UDC     C269137   8.673  11.808  15.474 -1.7172 -0.1187 -0.0815
 6286UDC     C369138   8.745  11.804  15.606 -1.3237  0.2747  0.2520
 6286UDC     C469139   8.793  11.660  15.640 -0.2242  0.2152 -0.2317
 6286UDC     C569140   8.904  11.650  15.744 -0.5519  0.2218  0.1850
 6286UDC     C669141   8.986  11.524  15.740 -0.8605 -0.1084  0.1396
 6286UDC     C769142   8.909  11.395  15.756 -0.5020  0.0648 -0.8678
 6286UDC     C869143   9.006  11.276  15.769  0.1437 -0.1476  0.3012
 6286UDC     C969144   8.962  11.154  15.858  0.0121  0.9040 -0.5511
 6286UDC    C1069145   9.045  11.159  15.983 -0.7044 -0.4201 -1.5125
 6286UDC    C1169146   9.008  11.272  16.081  0.6820  0.3295 -1.6747
 6287UDC     C169147   9.326   8.143  14.044  0.8167  0.2899  0.6391
 6287UDC     C269148   9.465   8.091  14.067  0.1735  0.0517  0.4892
 6287UDC     C369149   9.456   7.949  14.131 -1.0326 -0.5214  0.1457
 6287UDC     C469150   9.568   7.907  14.242 -0.1634 -0.6625  1.4002
 6287UDC     C569151   9.551   7.779  14.325  0.1816  1.2065 -0.1708
 6287UDC     C669152   9.536   7.637  14.258  0.7713  0.8539 -0.2245
 6287UDC     C769153   9.661   7.546  14.266  0.0859 -0.4540 -0.6244
 6287UDC     C869154   9.800   7.617  14.235 -0.2760 -0.9245 -0.0423
 6287UDC     C969155   9.930   7.524  14.244 -0.6894 -0.4069  0.4420
 6287UDC    C1069156  10.001   7.488  14.381  0.7321 -0.0466  0.0196
 6287UDC    C1169157  10.074   7.357  14.388 -0.3305  1.2012  0.4477
 6288UDC     C169158  19.563   1.077  10.311  0.3722 -1.0841 -0.6942
 6288UDC     C269159  19.708   1.113  10.283 -0.4992  0.9893 -1.6727
 6288UDC     C369160  19.802   1.072  10.395  0.0643 -1.5365  0.3688
 6288UDC     C469161  19.749   1.130  10.527 -0.5835  0.3451  0.1852
 6288UDC     C569162  19.782   1.055  10.654  0.5395  0.3695 -0.9188
 6288UDC     C669163  19.708   0.922  10.687 -1.0570  0.1821 -1.0169
 6288UDC     C769164  19.750   0.867  10.825 -0.0807  0.5698  1.0741
 6288UDC     C869165  19.737   0.716  10.811  1.0507 -0.9283 -0.0025
 6288UDC     C969166  19.867   0.646  10.777  0.7221  0.3342 -0.6078
 6288UDC    C1069167  19.821   0.498  10.750  0.4213  0.1959  0.2964
 6288UDC    C1169168  19.940   0.412  10.714  0.8856 -0.3857 -0.0502
 6289UDC     C169169  16.391  11.893  13.108 -0.0284 -0.1898 -0.3066
 6289UDC     C269170  16.461  11.816  12.999  1.7153  0.0072 -0.3036
 6289UDC     C369171  16.609  11.861  12.992  0.1384 -0.6335 -0.3824
 6289UDC     C469172  16.677  11.854  13.127 -0.1634 -0.1002 -0.8261
 6289UDC     C569173  16.804  11.928  13.163  0.0883  0.9161  0.5429
 6289UDC     C669174  16.830  11.989  13.303 -0.0085 -0.3269  0.4049
 6289UDC     C769175  16.699  12.019  13.375  0.8582 -1.1346  0.1809
 6289UDC     C869176  16.710  11.960  13.518  1.4267 -0.0928  1.3411
 6289UDC     C969177  16.737  11.808  13.526  0.2690 -0.1516 -0.1986
 6289UDC    C1069178  16.682  11.756  13.656  0.3673  0.4005 -0.0090
 6289UDC    C1169179  16.797  11.681  13.714  0.0999  0.2944 -0.2017
 6290UDC     C169180  16.391   9.834  17.654  0.8008  0.2907  0.3703
 6290UDC     C269181  16.480   9.891  17.760 -0.0216  0.5383  0.2342
 6290UDC     C369182  16.611   9.818  17.794 -0.1960  0.0129  0.5303
 6290UDC     C469183  16.688   9.875  17.915  0.5875 -0.4207 -0.0717
 6290UDC     C569184  16.664   9.802  18.051 -0.4040 -0.5651 -0.3064
 6290UDC     C669185  16.751   9.848  18.169 -0.7682 -0.2360 -0.1631
 6290UDC     C769186  16.728   9.774  18.300  0.5817 -0.2573  0.0396
 6290UDC     C869187  16.765   9.632  18.266 -0.2846  1.0550  0.1787
 6290UDC     C969188  16.686   9.530  18.345 -0.6569 -1.1893 -0.3077
 6290UDC    C1069189  16.596   9.432  18.268  0.1685 -0.1557 -0.9500
 6290UDC    C1169190  16.566   9.308  18.360 -0.3758 -0.6042  0.5628
 6291UDC     C169191  17.690  19.063  18.711  0.2860 -0.2457 -0.9002
 6291UDC     C269192  17.542  19.006  18.725  0.4943  0.5677 -0.8156
 6291UDC     C369193  17.506  18.914  18.840  0.4915  0.2222  0.0491
 6291UDC     C469194  17.616  18.818  18.865  0.7909 -0.1417  0.3198
 6291UDC     C569195  17.619  18.706  18.978  0.5312 -0.6234 -0.3627
 6291UDC     C669196  17.554  18.574  18.959  0.6439  0.1222  0.2771
 6291UDC     C769197  17.510  18.513  19.092  0.1841  0.3465 -0.3766
 6291UDC     C869198  17.626  18.516  19.196  0.9417 -0.1533  0.3353
 6291UDC     C969199  17.740  18.418  19.169  1.3029  0.7478 -0.0074
 6291UDC    C1069200  17.693  18.278  19.207  0.0264  0.3374  0.6724
 6291UDC    C1169201  17.707  18.178  19.090  0.1868 -0.2229  0.1916
 6292UDC     C169202  10.621   8.917  14.055 -0.5404 -0.1583 -0.4074
 6292UDC     C269203  10.591   8.896  14.203 -1.1512  1.1158  0.0997
 6292UDC     C369204  10.657   8.773  14.271 -0.3179 -0.5591  0.1413
 6292UDC     C469205  10.630   8.626  14.241  0.2058 -0.3969  0.4244
 6292UDC     C569206  10.486   8.607  14.293  0.6085  0.0530  0.4072
 6292UDC     C669207  10.442   8.463  14.257 -0.9456 -0.2058  0.5733
 6292UDC     C769208  10.553   8.352  14.281  1.6279  0.3638  0.4348
 6292UDC     C869209  10.533   8.219  14.207  0.2101  0.6338  0.3986
 6292UDC     C969210  10.625   8.102  14.245 -1.4384  0.3810  0.2925
 6292UDC    C1069211  10.621   7.978  14.155 -0.5759  0.1740 -0.6108
 6292UDC    C1169212  10.494   7.894  14.191  0.1460 -0.8945 -0.0088
 6293UDC     C169213   9.464   1.986  10.591  0.8175 -0.1475 -0.8896
 6293UDC     C269214   9.513   1.857  10.671 -0.5060 -1.0465  0.1105
 6293UDC     C369215   9.635   1.901  10.755  0.9655  0.4432  0.1518
 6293UDC     C469216   9.713   1.776  10.807 -0.1540 -0.8237 -0.1848
 6293UDC     C569217   9.850   1.820  10.863  0.9051  0.8638  0.8582
 6293UDC     C669218   9.823   1.943  10.957  0.3878  0.2182  0.8089
 6293UDC     C769219   9.943   2.032  10.964  0.3376  0.5407 -0.1313
 6293UDC     C869220   9.938   2.151  11.069  0.0000 -0.8987 -0.8617
 6293UDC     C969221   9.941   2.087  11.210 -0.6356  0.2820 -0.1625
 6293UDC    C1069222   9.892   2.207  11.298  0.0775 -0.2935  0.6384
 6293UDC    C1169223   9.828   2.145  11.423  0.1592 -0.0004 -0.3759
 6294UDC     C169224  11.857  19.182  11.833  1.1056  0.7982  1.0020
 6294UDC     C269225  11.963  19.183  11.725 -0.4815 -0.5832 -0.8205
 6294UDC     C369226  12.083  19.089  11.748  0.3840 -0.8910  0.8093
 6294UDC     C469227  12.212  19.136  11.675  0.8512  0.4279 -0.1804
 6294UDC     C569228  12.228  19.289  11.707 -0.3062  0.0338  0.9686
 6294UDC     C669229  12.346  19.360  11.629  0.2580 -1.2532 -0.2105
 6294UDC     C769230  12.302  19.503  11.607  0.6498 -0.2749 -0.1854
 6294UDC     C869231  12.274  19.518  11.457  0.9050  1.0776 -0.3598
 6294UDC     C969232  12.228  19.648  11.405  0.9336 -0.2960 -0.7303
 6294UDC    C1069233  12.274  19.670  11.262 -0.3866  1.0971 -0.2537
 6294UDC    C1169234  12.415  19.727  11.261  0.7327  0.0090 -0.6997
 6295UDC     C169235  10.968  11.315  19.954 -0.0978  0.4728 -0.4977
 6295UDC     C269236  10.897  11.182  19.949  0.4026  1.7707  0.4317
 6295UDC     C369237  10.855  11.126  20.089 -0.2579  0.2798 -0.4310
 6295UDC     C469238  10.880  10.973  20.120 -0.3145 -0.9786  0.5333
 6295UDC     C569239  11.026  10.945  20.162 -0.1227  0.3107  1.1989
 6295UDC     C669240  11.046  10.927  20.312  0.4272 -0.2786 -0.0113
 6295UDC     C769241  11.178  10.866  20.366 -0.1868  0.0913  0.1418
 6295UDC     C869242  11.216  10.896  20.519  0.4491 -1.3041 -0.2026
 6295UDC     C969243  11.105  10.875  20.621  0.3253 -0.4927  0.1943
 6295UDC    C1069244  11.054  11.011  20.677  0.4518  0.0450 -0.2721
 6295UDC    C1169245  10.983  11.013  20.813 -0.7899  0.1075 -0.5203
 6296UDC     C169246  18.268   5.085   5.716 -0.4628 -0.1120 -0.4502
 6296UDC     C269247  18.167   5.055   5.608  0.1900 -0.3034  0.0195
 6296UDC     C369248  18.204   4.951   5.506  0.3083  1.3127  0.9165
 6296UDC     C469249  18.101   4.955   5.393  0.4906  0.3582  0.8073
 6296UDC     C569250  18.111   4.857   5.278 -0.2913  0.0492 -0.0838
 6296UDC     C669251  17.998   4.880   5.173 -0.1756 -0.5733  0.4449
 6296UDC     C769252  17.991   4.767   5.066  0.4868 -0.4881  1.2190
 6296UDC     C869253  17.862   4.691   5.029  0.8983  0.8561  0.6357
 6296UDC     C969254  17.874   4.573   4.930  0.7238  0.0290  0.4372
 6296UDC    C1069255  17.898   4.613   4.787 -0.4059 -0.8345  0.0547
 6296UDC    C1169256  17.825   4.506   4.717  0.0198 -0.5372  0.2708
 6297UDC     C169257   5.048   8.907  10.790  1.6968  0.9964  0.6236
 6297UDC     C269258   4.995   8.961  10.917  0.1295 -0.0822 -0.2626
 6297UDC     C369259   4.900   8.870  10.994  0.4864  0.2886  0.6517
 6297UDC     C469260   4.857   8.922  11.124  0.7878 -0.0783  0.7398
 6297UDC     C569261   4.968   8.948  11.228  0.7492 -0.2053  0.0908
 6297UDC     C669262   4.940   9.039  11.348  0.5788 -0.3801  0.2538
 6297UDC     C769263   5.068   9.085  11.410  0.5402 -0.1423  0.3103
 6297UDC     C869264   5.062   9.048  11.560  0.0040  0.4915 -0.9460
 6297UDC     C969265   5.195   9.088  11.628  0.2284 -0.1348 -0.7927
 6297UDC    C1069266   5.180   9.173  11.755 -0.7403  0.8331  0.2127
 6297UDC    C1169267   5.286   9.243  11.840  0.0900 -0.2975 -0.2734
 6298UDC     C169268  10.530  12.522  11.094  0.4459 -0.6181 -0.3244
 6298UDC     C269269  10.413  12.431  11.065 -0.6647 -0.1991 -0.6923
 6298UDC     C369270  10.314  12.515  10.981 -0.0527  0.3536 -0.7907
 6298UDC     C469271  10.200  12.428  10.920 -1.7709  0.6867 -0.4494
 6298UDC     C569272  10.175  12.446  10.772 -0.5905 -0.0220  0.0890
 6298UDC     C669273  10.294  12.432  10.667  0.0021  0.0654 -1.1872
 6298UDC     C769274  10.270  12.359  10.533  0.3161 -0.2637  0.6452
 6298UDC     C869275  10.172  12.437  10.446  0.1068 -1.7492  0.2280
 6298UDC     C969276  10.096  12.358  10.330  0.0425  0.1577 -0.2680
 6298UDC    C1069277   9.959  12.305  10.365 -1.3090  0.1809 -0.3026
 6298UDC    C1169278   9.831  12.392  10.343  0.0911  0.6726 -0.4640
 6299UDC     C169279  17.943   2.912   5.820 -0.6535  0.7853  0.9549
 6299UDC     C269280  17.935   2.918   5.973  0.7311  0.3005  0.6760
 6299UDC     C369281  17.976   2.779   6.037 -0.6745  0.3171 -0.1925
 6299UDC     C469282  18.046   2.790   6.179 -0.4243 -0.0503  0.2899
 6299UDC     C569283  18.070   2.652   6.243 -0.6565 -0.0825 -1.3243
 6299UDC     C669284  18.087   2.648   6.398  0.6180 -0.1216 -0.6157
 6299UDC     C769285  17.955   2.659   6.483 -0.9799  0.5696  0.3936
 6299UDC     C869286  17.990   2.647   6.629 -0.9191  0.1404  0.1916
 6299UDC     C969287  17.871   2.633   6.712  0.6302 -0.0968 -0.2190
 6299UDC    C1069288  17.903   2.625   6.868 -0.3057  0.2227  0.5452
 6299UDC    C1169289  17.817   2.695   6.975 -1.2163  0.3853 -1.3758
 6300UDC     C169290   8.176  10.152  13.792 -0.3237  0.8891 -0.3212
 6300UDC     C269291   8.081  10.060  13.872  1.0706  0.1896 -0.1825
 6300UDC     C369292   8.143   9.999  14.005 -0.0681  0.5767  1.4759
 6300UDC     C469293   8.251   9.886  13.971 -0.5975 -0.1948 -0.7713
 6300UDC     C569294   8.236   9.770  13.872  0.6070 -0.4133  0.8092
 6300UDC     C669295   8.370   9.700  13.851 -1.8751 -0.2109 -0.1564
 6300UDC     C769296   8.364   9.573  13.766 -0.8742  0.2109 -0.0015
 6300UDC     C869297   8.474   9.464  13.749  0.8432 -0.7834  0.3454
 6300UDC     C969298   8.615   9.524  13.760 -0.9532  0.6874  0.7070
 6300UDC    C1069299   8.728   9.428  13.703 -0.4895 -1.1367 -0.1597
 6300UDC    C1169300   8.711   9.275  13.728 -0.4099  0.5686  1.0193
 6301UDC     C169301  14.121  16.898   6.004  0.6147  0.3098 -0.5948
 6301UDC     C269302  14.244  16.917   5.919  0.0456  0.3450 -0.7442
 6301UDC     C369303  14.315  17.050   5.937  0.4038 -0.8419  0.3655
 6301UDC     C469304  14.399  17.083   5.815  0.2033  0.0356 -0.6428
 6301UDC     C569305  14.536  17.127   5.873 -0.5583  0.4913  1.4280
 6301UDC     C669306  14.644  17.160   5.764 -0.0510  0.5564 -0.8572
 6301UDC     C769307  14.669  17.308   5.746  0.9607 -0.5457  0.3563
 6301UDC     C869308  14.737  17.338   5.616  0.2357  0.4420  0.1488
 6301UDC     C969309  14.657  17.288   5.494  0.6085  0.0497 -0.7567
 6301UDC    C1069310  14.734  17.276   5.366  0.6279  0.5172 -0.2967
 6301UDC    C1169311  14.631  17.230   5.260  0.3559  0.1717  1.2767
 6302UDC     C169312   1.283  18.773   0.820  0.4432  0.6116  0.7380
 6302UDC     C269313   1.263  18.808   0.669 -0.4809  0.7622  0.5360
 6302UDC     C369314   1.218  18.959   0.653 -0.8760 -0.1878 -0.4877
 6302UDC     C469315   1.095  19.011   0.718 -0.0656  0.5223  0.6373
 6302UDC     C569316   0.959  18.944   0.701  0.2574 -1.1327  0.8167
 6302UDC     C669317   0.854  19.031   0.774  0.5461  0.0590  0.8391
 6302UDC     C769318   0.897  19.080   0.915  0.2655  0.2594  0.3158
 6302UDC     C869319   0.926  18.971   1.015  0.1386 -0.8463  0.0507
 6302UDC     C969320   0.993  19.010   1.150  0.1509 -0.4543 -0.5232
 6302UDC    C1069321   1.022  18.905   1.264 -0.3485 -1.1439 -0.3456
 6302UDC    C1169322   1.126  18.803   1.223  0.9358 -0.5041 -0.4848
 6303UDC     C169323   1.675   3.191   5.390 -0.4915  0.1477  0.5532
 6303UDC     C269324   1.676   3.218   5.549  0.7902 -0.4053  0.4089
 6303UDC     C369325   1.533   3.255   5.588 -0.9930  0.8182 -1.2240
 6303UDC     C469326   1.503   3.326   5.726 -0.3634  0.1581  0.7046
 6303UDC     C569327   1.356   3.362   5.760 -0.2694 -1.1616 -0.2568
 6303UDC     C669328   1.316   3.317   5.903  0.4629  0.7092  1.3621
 6303UDC     C769329   1.375   3.385   6.024 -0.2238 -0.2000 -0.2986
 6303UDC     C869330   1.355   3.297   6.145 -0.2286 -0.7655  0.1602
 6303UDC     C969331   1.358   3.358   6.289 -0.9834  0.6337 -0.5786
 6303UDC    C1069332   1.277   3.482   6.309  0.3237 -0.1225  0.8224
 6303UDC    C1169333   1.296   3.550   6.451  0.2147  0.1338 -0.6001
 6304UDC     C169334  14.855  10.882   6.919  0.3597 -0.3165 -0.6650
 6304UDC     C269335  14.736  10.961   6.965  0.0307 -0.2225  0.0453
 6304UDC     C369336  14.702  11.075   6.863 -0.0981 -1.0848 -0.0710
 6304UDC     C469337  14.594  11.172   6.913 -0.2112  0.1680  0.5996
 6304UDC     C569338  14.506  11.224   6.793 -0.4740  0.1859  0.2286
 6304UDC     C669339  14.601  11.258   6.675  1.5175 -0.2539 -0.0821
 6304UDC     C769340  14.584  11.396   6.600 -0.3875  0.0632  0.9850
 6304UDC     C869341  14.438  11.428   6.576  0.3430 -0.1561 -0.2780
 6304UDC     C969342  14.410  11.537   6.467  0.7464  1.2252  0.1982
 6304UDC    C1069343  14.441  11.677   6.502 -0.4782 -0.6808  0.2912
 6304UDC    C1169344  14.341  11.741   6.597  0.7086 -0.0377  0.6565
 6305UDC     C169345  10.582   4.815   3.421  0.4946 -0.7101 -0.2345
 6305UDC     C269346  10.508   4.706   3.343  0.8404  0.0489 -0.1114
 6305UDC     C369347  10.552   4.699   3.197 -0.4615  0.3199  0.3992
 6305UDC     C469348  10.464   4.584   3.148  0.5297  0.1457 -0.2726
 6305UDC     C569349  10.486   4.568   2.999  0.7081  0.9903 -0.0875
 6305UDC     C669350  10.364   4.534   2.905 -0.2584  0.1888 -0.3122
 6305UDC     C769351  10.411   4.523   2.758 -0.6184 -0.1632 -0.6074
 6305UDC     C869352  10.323   4.425   2.680  0.4919 -0.7997  0.6351
 6305UDC     C969353  10.374   4.414   2.537  1.1836 -0.2914 -0.0042
 6305UDC    C1069354  10.296   4.319   2.448 -0.4500 -0.3283 -0.7936
 6305UDC    C1169355  10.227   4.382   2.320  0.3880 -0.4850 -0.0505
 6306UDC     C169356  16.135  11.632  18.202 -0.6061 -0.8587 -0.1278
 6306UDC     C269357  16.132  11.638  18.051  0.2943 -0.6803 -0.8219
 6306UDC     C369358  16.266  11.660  17.977  0.4908 -0.3280 -0.5174
 6306UDC     C469359  16.250  11.744  17.844 -0.7904  1.7432 -0.2167
 6306UDC     C569360  16.355  11.710  17.735 -0.7276  0.3537 -0.7963
 6306UDC     C669361  16.339  11.780  17.600  1.0775  1.4986 -0.1373
 6306UDC     C769362  16.208  11.759  17.518 -0.6648  0.1008  0.6411
 6306UDC     C869363  16.160  11.613  17.487 -0.3529 -0.6279  0.0616
 6306UDC     C969364  16.208  11.573  17.349  0.3779 -0.3032 -0.6617
 6306UDC    C1069365  16.113  11.468  17.290  1.3509 -0.2667 -0.8512
 6306UDC    C1169366  16.175  11.378  17.178  0.3588  0.0601 -1.3233
 6307UDC     C169367   4.364  11.470   9.977  0.0790  0.1700  0.6271
 6307UDC     C269368   4.435  11.344   9.927 -0.3831 -0.6071  0.4914
 6307UDC     C369369   4.457  11.342   9.775 -0.3243 -0.8010  0.2909
 6307UDC     C469370   4.341  11.330   9.688  1.0525  0.8228  0.0394
 6307UDC     C569371   4.290  11.186   9.689 -0.6456 -1.3074  0.4494
 6307UDC     C669372   4.178  11.144   9.598  0.4746  0.4507 -0.6779
 6307UDC     C769373   4.152  10.991   9.582 -0.2482  0.3502 -0.1627
 6307UDC     C869374   4.017  10.953   9.534 -0.0154 -0.2322  1.4304
 6307UDC     C969375   4.027  10.918   9.379  0.6925  0.6411 -0.5733
 6307UDC    C1069376   4.151  10.846   9.336  0.5549 -0.1738  0.1464
 6307UDC    C1169377   4.106  10.772   9.204  0.0261  0.0823 -0.2522
 6308UDC     C169378   6.601   1.109  18.558  0.3421  0.5399  0.2472
 6308UDC     C269379   6.745   1.070  18.593  0.1592 -0.7424 -0.4403
 6308UDC     C369380   6.790   1.098  18.736  0.4538  1.0972  0.7750
 6308UDC     C469381   6.919   1.014  18.760  1.4905  0.0930 -0.3168
 6308UDC     C569382   7.050   1.063  18.711 -0.7482 -1.3232  0.5480
 6308UDC     C669383   7.092   1.209  18.749  1.0409 -0.5096  1.1402
 6308UDC     C769384   7.234   1.249  18.690  0.2088  0.1310 -0.0729
 6308UDC     C869385   7.338   1.146  18.717 -1.5246 -1.0455 -0.4795
 6308UDC     C969386   7.465   1.187  18.644  0.2503 -0.4476  0.1070
 6308UDC    C1069387   7.545   1.065  18.609 -0.4990  0.7298 -1.1096
 6308UDC    C1169388   7.667   1.120  18.534 -0.3842 -0.1202  0.5335
 6309UDC     C169389   9.115   1.041   0.125 -0.5987  0.0365 -1.1182
 6309UDC     C269390   9.021   1.156   0.176  0.6459  0.6090 -0.8738
 6309UDC     C369391   9.091   1.206   0.299  0.0901 -0.8709  0.4198
 6309UDC     C469392   9.013   1.311   0.388 -0.2024  1.6125  0.8485
 6309UDC     C569393   8.900   1.378   0.319  0.2268 -0.1038 -0.4687
 6309UDC     C669394   8.921   1.503   0.228 -0.8521  0.0250  0.5365
 6309UDC     C769395   8.782   1.558   0.185 -0.2530  0.3067  0.0936
 6309UDC     C869396   8.717   1.632   0.305 -0.4191 -0.1503  1.1409
 6309UDC     C969397   8.590   1.712   0.271  1.0795  1.4993  0.7099
 6309UDC    C1069398   8.583   1.860   0.265  0.3479  0.0222 -0.4409
 6309UDC    C1169399   8.440   1.904   0.246 -0.4250  0.0332  0.7113
 6310UDC     C169400   2.196  14.418  19.100  0.4974 -0.4495 -0.2630
 6310UDC     C269401   2.207  14.267  19.122  0.3657  0.4624  0.1679
 6310UDC     C369402   2.127  14.206  19.009  0.7768 -0.2923  0.3124
 6310UDC     C469403   2.192  14.214  18.867 -0.4786 -0.0841  0.8903
 6310UDC     C569404   2.304  14.110  18.855  0.1919  0.7714  0.8260
 6310UDC     C669405   2.366  14.111  18.715 -0.2282 -0.0067  1.0711
 6310UDC     C769406   2.464  13.992  18.685 -1.2710 -0.0790  0.1676
 6310UDC     C869407   2.574  13.990  18.580  0.0254  0.0637  0.5718
 6310UDC     C969408   2.648  13.854  18.569  0.4001  0.1345  0.4123
 6310UDC    C1069409   2.745  13.865  18.446  0.2455  0.5492 -0.0338
 6310UDC    C1169410   2.873  13.933  18.493 -0.2058  0.9583 -0.4108
 6311UDC     C169411   1.803  14.073   2.226  0.9028  0.9861  0.6766
 6311UDC     C269412   1.655  14.041   2.207 -0.2163  0.6695 -0.9448
 6311UDC     C369413   1.575  14.070   2.334 -0.2141  0.0934 -0.1832
 6311UDC     C469414   1.432  14.034   2.325 -0.2944 -0.6690  1.9709
 6311UDC     C569415   1.355  14.125   2.420  1.1524  1.0049  0.4628
 6311UDC     C669416   1.200  14.104   2.423 -0.5806 -0.1760 -0.4221
 6311UDC     C769417   1.112  14.176   2.525  0.4913 -0.2523 -0.2220
 6311UDC     C869418   0.977  14.201   2.467  0.6717  0.0697  1.2157
 6311UDC     C969419   0.902  14.315   2.541 -1.3258  1.0219  0.4187
 6311UDC    C1069420   0.988  14.356   2.661  0.7385 -0.0245 -0.3205
 6311UDC    C1169421   0.912  14.470   2.734 -0.5596  0.6454 -0.0326
 6312UDC     C169422  17.437  12.353   2.510  0.3910 -0.0104 -1.1606
 6312UDC     C269423  17.464  12.267   2.635 -0.5500  0.4423  0.6711
 6312UDC     C369424  17.339  12.189   2.686 -0.3201  1.1024  0.6741
 6312UDC     C469425  17.402  12.117   2.813  0.0039 -0.4846  0.6410
 6312UDC     C569426  17.310  12.106   2.935 -0.0117 -0.1407  0.1869
 6312UDC     C669427  17.224  12.230   2.930 -0.3350 -0.9827  0.3318
 6312UDC     C769428  17.089  12.230   3.000  0.9773  0.2452  1.2438
 6312UDC     C869429  17.013  12.358   2.971  0.0064  0.2609  0.1367
 6312UDC     C969430  16.914  12.413   3.072  0.5920  0.3291 -0.1449
 6312UDC    C1069431  16.841  12.541   3.038 -0.5907  0.9730 -0.1567
 6312UDC    C1169432  16.702  12.516   2.973  0.9891 -1.1489  0.1900
 6313UDC     C169433  13.762   7.467  11.290  0.3295 -0.4076 -0.4006
 6313UDC     C269434  13.889   7.434  11.377 -0.8332 -0.4842  0.2182
 6313UDC     C369435  14.001   7.536  11.339  0.0389  0.7512 -0.7058
 6313UDC     C469436  14.047   7.624  11.456 -0.8367 -0.0909  0.0402
 6313UDC     C569437  14.198   7.625  11.492  0.4207 -0.8063  0.0408
 6313UDC     C669438  14.271   7.648  11.354 -0.4540  0.7653 -0.7955
 6313UDC     C769439  14.248   7.782  11.285 -0.8609 -1.2486  0.3918
 6313UDC     C869440  14.298   7.892  11.383  1.1442  1.3646 -0.6399
 6313UDC     C969441  14.231   8.026  11.337 -0.7366 -0.3020 -0.3757
 6313UDC    C1069442  14.124   8.121  11.401  1.3661  0.2789 -0.4672
 6313UDC    C1169443  14.179   8.261  11.381  0.3966 -0.5609  0.3883
 6314UDC     C169444  18.882   1.349   8.328 -0.8531  0.9902  0.0927
 6314UDC     C269445  18.980   1.229   8.282 -0.8685  0.1444 -0.5946
 6314UDC     C369446  19.131   1.248   8.317  0.0276  0.1712  0.4088
 6314UDC     C469447  19.214   1.301   8.194 -0.9744  1.0013 -1.0621
 6314UDC     C569448  19.332   1.394   8.212  0.2221  0.5077 -0.5340
 6314UDC     C669449  19.444   1.390   8.104 -0.6242  1.6567 -0.2743
 6314UDC     C769450  19.493   1.243   8.071  0.2722 -0.7424 -0.3582
 6314UDC     C869451  19.552   1.237   7.930 -0.9976 -0.2798 -0.2997
 6314UDC     C969452  19.441   1.260   7.831  0.9942 -0.0819  1.0797
 6314UDC    C1069453  19.479   1.317   7.692  0.5516  0.1903 -0.3746
 6314UDC    C1169454  19.597   1.230   7.648 -1.2941 -0.8494  1.2889
 6315UDC     C169455  14.753   3.322  16.622  0.5216  0.0681  0.6184
 6315UDC     C269456  14.895   3.269  16.623 -0.0829 -0.4194  0.1134
 6315UDC     C369457  14.966   3.291  16.493  0.2624 -0.1791  1.1784
 6315UDC     C469458  14.919   3.206  16.367  0.6046 -2.0340 -0.5800
 6315UDC     C569459  14.968   3.062  16.359 -0.7152  0.3747 -0.1138
 6315UDC     C669460  15.109   3.076  16.306 -0.7554  0.1929 -0.2962
 6315UDC     C769461  15.217   2.970  16.310  0.0178  0.0961 -0.2883
 6315UDC     C869462  15.229   2.875  16.191 -0.3991 -0.6161 -0.0850
 6315UDC     C969463  15.367   2.879  16.126 -0.1603 -0.2785 -0.6076
 6315UDC    C1069464  15.393   2.999  16.033  0.2059  0.1515 -0.4240
 6315UDC    C1169465  15.284   3.019  15.920 -0.4294  0.3913 -0.3552
 6316UDC     C169466   4.959  15.725  13.316 -0.3564  0.3550  0.2262
 6316UDC     C269467   4.937  15.576  13.290 -0.7779 -0.5288 -0.2047
 6316UDC     C369468   4.784  15.557  13.306  0.0035 -0.1548  0.3248
 6316UDC     C469469   4.714  15.639  13.417  0.2620 -0.1903 -0.1270
 6316UDC     C569470   4.567  15.595  13.423  0.0335  0.3532  0.0253
 6316UDC     C669471   4.530  15.628  13.564  0.3074  1.0553 -0.6975
 6316UDC     C769472   4.571  15.529  13.675 -0.1956 -0.1390  0.0380
 6316UDC     C869473   4.567  15.610  13.809 -0.6963 -0.7681 -0.3954
 6316UDC     C969474   4.614  15.539  13.934  0.8563  0.7298 -0.1243
 6316UDC    C1069475   4.631  15.620  14.062 -0.6008 -0.3391 -0.3375
 6316UDC    C1169476   4.752  15.716  14.038  0.6330  1.2028 -0.4890
 6317UDC     C169477  17.478  18.346  16.545 -0.0100 -0.1652 -1.5887
 6317UDC     C269478  17.581  18.252  16.618  0.6145  0.4093 -0.1600
 6317UDC     C369479  17.725  18.286  16.556  0.8926  0.5268 -0.0367
 6317UDC     C469480  17.838  18.262  16.651 -0.5410  1.1915  0.3066
 6317UDC     C569481  17.973  18.268  16.583 -0.3789 -0.2990 -0.1916
 6317UDC     C669482  18.100  18.257  16.672 -0.7102 -0.8336  0.4568
 6317UDC     C769483  18.225  18.290  16.587 -0.5351 -0.3703  0.1052
 6317UDC     C869484  18.356  18.288  16.672 -0.1597 -0.4041  0.5823
 6317UDC     C969485  18.473  18.374  16.619 -0.1277  0.6367 -0.1289
 6317UDC    C1069486  18.581  18.366  16.727  0.2293  0.8918  1.0155
 6317UDC    C1169487  18.719  18.432  16.687 -0.3802 -0.2049  0.1560
 6318UDC     C169488  10.213  14.115  12.647 -0.1787  0.4098 -0.5991
 6318UDC     C269489  10.068  14.077  12.613  0.2038 -0.4764  0.1122
 6318UDC     C369490  10.028  14.198  12.524  0.5250  0.1279 -0.5663
 6318UDC     C469491   9.982  14.324  12.602  0.5628  0.9028  0.6986
 6318UDC     C569492   9.882  14.415  12.529  0.9939  0.3878 -0.2467
 6318UDC     C669493   9.761  14.354  12.456  0.7350 -0.1828 -0.2369
 6318UDC     C769494   9.640  14.442  12.425  0.3793 -0.0441 -0.1866
 6318UDC     C869495   9.511  14.362  12.394 -0.5440 -0.4728  1.3274
 6318UDC     C969496   9.532  14.283  12.266 -0.4370  0.3712 -0.3898
 6318UDC    C1069497   9.400  14.219  12.212  0.2611 -0.4077 -0.4475
 6318UDC    C1169498   9.349  14.100  12.281 -0.0379  1.3549  0.8671
 6319UDC     C169499  18.275   1.559   2.753 -0.2191  0.3556 -0.0460
 6319UDC     C269500  18.155   1.630   2.825  0.1964  1.2492 -0.5630
 6319UDC     C369501  18.124   1.584   2.968 -0.3327  1.0291 -0.3582
 6319UDC     C469502  17.973   1.567   2.978  1.1096 -0.8658 -0.0604
 6319UDC     C569503  17.913   1.484   3.090 -0.3094  0.0948  0.0646
 6319UDC     C669504  17.932   1.333   3.088 -1.0223  1.0471 -0.6233
 6319UDC     C769505  17.892   1.241   3.201  1.1386 -0.0565  0.4302
 6319UDC     C869506  17.929   1.321   3.333 -0.1127 -0.1223  0.9195
 6319UDC     C969507  17.876   1.235   3.454 -0.9947 -0.9921 -0.2274
 6319UDC    C1069508  17.724   1.240   3.484  0.3662 -0.0474 -0.3829
 6319UDC    C1169509  17.654   1.370   3.539  0.2357 -1.2584  0.7193
 6320UDC     C169510   5.229  14.361   0.424 -0.3898  0.0262 -0.5768
 6320UDC     C269511   5.140  14.470   0.487  0.5207 -0.5074  0.0860
 6320UDC     C369512   5.005  14.398   0.474 -0.1007  0.1937 -0.1266
 6320UDC     C469513   4.909  14.464   0.587  0.2433 -0.1921  0.0691
 6320UDC     C569514   4.766  14.398   0.568  0.0452 -1.8261  1.3229
 6320UDC     C669515   4.664  14.452   0.673  1.8075 -0.1696  0.0306
 6320UDC     C769516   4.695  14.433   0.823 -0.0649 -0.4067  0.1644
 6320UDC     C869517   4.707  14.552   0.922 -0.2732 -0.5563  0.3585
 6320UDC     C969518   4.580  14.628   0.951  0.5140 -0.3366  0.1737
 6320UDC    C1069519   4.465  14.653   0.856  0.3839 -0.1140  0.2326
 6320UDC    C1169520   4.453  14.802   0.826  1.5122  0.3012 -0.6520
 6321UDC     C169521  18.390   0.411   2.045  0.1104 -1.5327  1.4586
 6321UDC     C269522  18.464   0.290   2.095  1.2235 -0.6425 -1.0098
 6321UDC     C369523  18.584   0.316   2.180 -0.4010  0.1584 -0.4571
 6321UDC     C469524  18.568   0.356   2.330  0.0163  0.7463 -0.1106
 6321UDC     C569525  18.698   0.417   2.387 -0.2813  0.2819 -0.9469
 6321UDC     C669526  18.664   0.503   2.507 -0.0348  0.8459  0.8421
 6321UDC     C769527  18.577   0.623   2.475  0.5463 -0.1242  0.8969
 6321UDC     C869528  18.622   0.771   2.448 -0.2244 -0.3617  0.7947
 6321UDC     C969529  18.726   0.759   2.327 -0.5673 -0.1285  0.3182
 6321UDC    C1069530  18.787   0.897   2.285 -0.4308 -0.1008  0.4188
 6321UDC    C1169531  18.934   0.888   2.236 -0.6934  0.1802  0.7153
 6322UDC     C169532  10.899  10.728   8.438 -0.1733  0.2047 -0.1342
 6322UDC     C269533  10.758  10.755   8.397  0.4789 -0.3153 -0.3136
 6322UDC     C369534  10.764  10.865   8.289  0.3078  1.0460  0.6517
 6322UDC     C469535  10.619  10.888   8.257  0.5687 -0.1228  0.9158
 6322UDC     C569536  10.608  11.027   8.185 -0.1620  0.7337  0.8465
 6322UDC     C669537  10.459  11.053   8.154  0.3014  0.1401  0.4312
 6322UDC     C769538  10.408  11.195   8.123 -0.1430 -0.4161  0.7892
 6322UDC     C869539  10.374  11.296   8.233  0.7938  0.4621  0.3831
 6322UDC     C969540  10.484  11.387   8.267  0.0522 -0.0201  0.1081
 6322UDC    C1069541  10.470  11.475   8.392  0.9696 -1.0782  0.8493
 6322UDC    C1169542  10.422  11.619   8.347 -0.5957  0.0327  0.7976
 6323UDC     C169543   7.449  12.745   2.993 -0.7105 -0.3468 -0.5190
 6323UDC     C269544   7.470  12.824   3.122  0.1026  0.2817  0.4473
 6323UDC     C369545   7.344  12.828   3.212  0.9297 -0.5600 -0.4968
 6323UDC     C469546   7.204  12.880   3.151  0.2903  0.4784  0.3556
 6323UDC     C569547   7.218  13.015   3.077  0.3234  1.2641 -0.2698
 6323UDC     C669548   7.127  13.044   2.958 -0.7868  0.3214 -0.3387
 6323UDC     C769549   7.197  13.091   2.836 -0.5789 -0.3144  0.6214
 6323UDC     C869550   7.153  13.021   2.708  0.2465 -1.1158  0.2440
 6323UDC     C969551   7.019  13.085   2.681  0.6152  1.1042  1.1549
 6323UDC    C1069552   6.978  13.046   2.536  0.2651  0.3784 -0.3892
 6323UDC    C1169553   6.828  13.079   2.516 -0.2712 -0.7462 -0.1611
 6324UDC     C169554  17.804  17.578   2.375 -0.7208 -0.2400  0.7503
 6324UDC     C269555  17.847  17.440   2.426  0.8881  0.7330  0.4500
 6324UDC     C369556  17.973  17.414   2.346  0.0495 -0.3157  1.0089
 6324UDC     C469557  18.100  17.415   2.437 -0.0293 -0.3625  0.0897
 6324UDC     C569558  18.206  17.354   2.354  0.4235 -0.4260  0.7372
 6324UDC     C669559  18.340  17.407   2.414 -0.1815  0.8701 -0.4693
 6324UDC     C769560  18.461  17.312   2.384 -0.1768 -0.6341 -0.7415
 6324UDC     C869561  18.585  17.333   2.468 -0.0517 -0.8639  0.7455
 6324UDC     C969562  18.705  17.253   2.404 -1.2103 -0.1126 -0.3024
 6324UDC    C1069563  18.840  17.286   2.463 -0.2100 -0.1429  0.0872
 6324UDC    C1169564  18.846  17.218   2.596 -0.0508  0.7074 -0.1906
 6325UDC     C169565  18.161  12.502  16.659  1.1631  0.0179  0.5184
 6325UDC     C269566  18.078  12.376  16.688 -0.1827 -0.4695  0.5336
 6325UDC     C369567  18.141  12.284  16.790 -0.2996 -0.1176 -0.1592
 6325UDC     C469568  18.132  12.352  16.932  0.2106 -0.0932  0.7704
 6325UDC     C569569  18.173  12.263  17.048  0.1952  0.7485  0.5540
 6325UDC     C669570  18.199  12.326  17.183 -0.1191  0.3828 -0.3482
 6325UDC     C769571  18.100  12.437  17.207  0.9908  0.7482 -0.6729
 6325UDC     C869572  18.141  12.515  17.336  0.6236  0.4258  0.4551
 6325UDC     C969573  18.237  12.444  17.436  0.4894  0.3220 -0.8715
 6325UDC    C1069574  18.177  12.482  17.574 -0.2284 -0.3445  0.5238
 6325UDC    C1169575  18.239  12.413  17.694  0.6842 -0.1442 -1.0975
 6326UDC     C169576  11.151   7.878  15.181  0.3364 -0.6445 -0.2464
 6326UDC     C269577  11.079   7.747  15.198 -0.6684 -0.5369  0.7113
 6326UDC     C369578  10.952   7.726  15.112  0.4958  0.1387 -0.0599
 6326UDC     C469579  10.854   7.622  15.173  0.4572 -0.5323 -0.0874
 6326UDC     C569580  10.714   7.637  15.118  0.6247  0.0381  0.0935
 6326UDC     C669581  10.610   7.592  15.226  0.8253 -0.4222  0.1236
 6326UDC     C769582  10.560   7.689  15.342 -0.7168 -0.6294 -0.5853
 6326UDC     C869583  10.502   7.628  15.469  0.1339 -1.5653 -0.5518
 6326UDC     C969584  10.345   7.618  15.466  0.6403  0.6940 -1.2294
 6326UDC    C1069585  10.282   7.533  15.347 -0.3211 -0.5743  0.5525
 6326UDC    C1169586  10.142   7.586  15.304  0.3701  0.5366 -0.2861
 6327UDC     C169587  19.424   4.634  14.615 -0.0632 -0.9104 -0.4545
 6327UDC     C269588  19.429   4.482  14.580  1.0194 -1.2575 -0.6460
 6327UDC     C369589  19.398   4.451  14.431  0.0942  0.0780 -0.0510
 6327UDC     C469590  19.465   4.537  14.319  0.4215  0.0224  0.7959
 6327UDC     C569591  19.396   4.670  14.293  0.0546 -0.6155 -1.4821
 6327UDC     C669592  19.446   4.749  14.169 -2.2225 -0.2666  0.0798
 6327UDC     C769593  19.463   4.903  14.146 -0.4517 -0.1219 -0.9224
 6327UDC     C869594  19.522   4.933  14.008  0.3497 -0.3658  0.2416
 6327UDC     C969595  19.596   5.062  14.002 -0.0318 -0.1818 -0.9985
 6327UDC    C1069596  19.527   5.182  14.075  1.2697 -0.3193 -0.7335
 6327UDC    C1169597  19.603   5.314  14.115 -1.1404 -0.4727 -0.4414
 6328UDC     C169598  13.294  11.945   6.463  0.9162 -0.3879  0.0991
 6328UDC     C269599  13.188  11.877   6.552 -0.9885 -0.1348 -0.4434
 6328UDC     C369600  13.103  11.787   6.465  0.4671 -0.8866  0.1272
 6328UDC     C469601  13.021  11.698   6.563  0.0805  1.0327 -0.1018
 6328UDC     C569602  12.908  11.764   6.646  0.2620  0.4730 -1.0190
 6328UDC     C669603  12.789  11.794   6.556 -1.0297 -0.3018  1.0581
 6328UDC     C769604  12.732  11.671   6.480 -0.4773  0.8470  0.0999
 6328UDC     C869605  12.603  11.687   6.404  1.2454 -0.3138 -0.3219
 6328UDC     C969606  12.543  11.549   6.385 -0.1308 -0.2642 -0.1756
 6328UDC    C1069607  12.557  11.463   6.510 -1.2105 -0.0309  0.3714
 6328UDC    C1169608  12.482  11.495   6.640 -0.6148 -0.3464  0.9505
 6329UDC     C169609  11.794   9.062  15.631  0.0364  0.8524 -0.3623
 6329UDC     C269610  11.644   9.077  15.590  0.5755 -0.1672 -0.9831
 6329UDC     C369611  11.571   8.954  15.646 -0.4143  0.8920 -0.5227
 6329UDC     C469612  11.422   8.953  15.605 -0.1686 -0.1007 -0.3990
 6329UDC     C569613  11.352   8.822  15.641 -0.0307  0.0497  0.6519
 6329UDC     C669614  11.239   8.792  15.553 -1.3698  0.6522  0.5306
 6329UDC     C769615  11.193   8.645  15.567  0.8716 -0.4749 -0.4505
 6329UDC     C869616  11.062   8.609  15.491  0.4336 -0.1158  0.1026
 6329UDC     C969617  11.018   8.466  15.486  0.6838 -0.7519  0.4163
 6329UDC    C1069618  11.114   8.344  15.489 -0.0495 -0.1173  1.1200
 6329UDC    C1169619  11.049   8.205  15.484  0.3496  1.0633  1.3191
 6330UDC     C169620  19.115   8.682  12.674  0.1771 -0.0804 -0.5158
 6330UDC     C269621  19.142   8.779  12.793 -0.1698 -0.7509 -1.0938
 6330UDC     C369622  19.135   8.917  12.743 -0.1693  0.7850  0.2055
 6330UDC     C469623  19.188   9.019  12.840  0.1764 -0.7075 -0.9611
 6330UDC     C569624  19.171   9.162  12.792  0.2375  0.7507 -0.0288
 6330UDC     C669625  19.269   9.196  12.674  0.6974  0.0045 -0.3443
 6330UDC     C769626  19.303   9.349  12.664 -1.7073 -0.2583  1.1026
 6330UDC     C869627  19.178   9.433  12.638 -0.7847 -1.1819  0.4700
 6330UDC     C969628  19.185   9.582  12.677  0.3962 -0.0730 -0.9313
 6330UDC    C1069629  19.315   9.665  12.672  0.6952  0.0589 -0.1288
 6330UDC    C1169630  19.315   9.796  12.590  0.2561  0.0532 -0.9389
 6331UDC     C169631  19.950  10.189  19.197  0.4348  0.2891  0.2791
 6331UDC     C269632  20.035  10.218  19.324 -0.6770 -0.2255 -0.0683
 6331UDC     C369633  20.179  10.260  19.285  0.7134  0.0049 -0.4044
 6331UDC     C469634  20.291  10.288  19.384 -0.8772  0.3021  0.2700
 6331UDC     C569635  20.380  10.405  19.335  0.9387 -0.4340 -1.6780
 6331UDC     C669636  20.499  10.428  19.437 -0.4305  0.1112  0.0576
 6331UDC     C769637  20.579  10.296  19.437 -0.2879 -0.2675 -0.0356
 6331UDC     C869638  20.661  10.285  19.562  0.3432  0.4219  0.5076
 6331UDC     C969639  20.598  10.307  19.700 -0.1545  1.0061  1.0278
 6331UDC    C1069640  20.668  10.276  19.838 -0.1773  0.1269 -0.6861
 6331UDC    C1169641  20.713  10.132  19.812 -0.2512 -0.8032  1.2607
 6332UDC     C169642  19.871   9.715   0.023 -0.8463 -0.6692  0.0566
 6332UDC     C269643  19.852   9.702   0.176  0.7638 -0.6907  0.2619
 6332UDC     C369644  19.969   9.760   0.252  0.3905  0.9156  0.1835
 6332UDC     C469645  19.966   9.905   0.209  0.2600  0.6257 -0.2655
 6332UDC     C569646  19.827   9.969   0.254 -1.0627 -0.5032 -0.9497
 6332UDC     C669647  19.828  10.122   0.254 -0.0163  0.1835  0.0464
 6332UDC     C769648  19.921  10.169   0.375 -1.6678  1.2255  0.0593
 6332UDC     C869649  19.859  10.140   0.507 -0.0786  0.7848  0.3113
 6332UDC     C969650  19.966  10.090   0.609 -0.2919  0.0511 -0.5490
 6332UDC    C1069651  19.899  10.076   0.752 -0.0903  0.9861  0.4354
 6332UDC    C1169652  20.003  10.096   0.863 -1.0256  0.3298 -0.2918
 6333UDC     C169653  16.989  10.826  15.063 -0.0218 -0.7971  0.4156
 6333UDC     C269654  17.054  10.687  15.069 -0.7289  1.4079 -0.4253
 6333UDC     C369655  16.979  10.571  14.985 -0.3962 -0.0134  1.3092
 6333UDC     C469656  16.997  10.568  14.835 -0.4287 -0.2046 -0.0973
 6333UDC     C569657  16.933  10.449  14.767  1.1684  0.3856  1.2390
 6333UDC     C669658  16.776  10.463  14.748  0.3375  0.6319 -0.5423
 6333UDC     C769659  16.732  10.435  14.602  0.1633  0.0706  0.4328
 6333UDC     C869660  16.583  10.459  14.581  0.3408  0.0723 -0.4503
 6333UDC     C969661  16.569  10.488  14.422  0.2757  0.9667 -0.7677
 6333UDC    C1069662  16.625  10.627  14.386  0.2183  0.9326  0.6100
 6333UDC    C1169663  16.633  10.653  14.236  0.5451  0.6077  0.9586
 6334UDC     C169664   6.665  10.473   3.859  0.2096 -0.4369  0.2081
 6334UDC     C269665   6.794  10.489   3.944 -0.6685 -1.4791  0.5648
 6334UDC     C369666   6.921  10.556   3.896 -0.5165 -0.0578 -0.8771
 6334UDC     C469667   7.035  10.582   4.002  0.0519  0.7491 -0.9345
 6334UDC     C569668   7.178  10.603   3.944 -0.0267 -1.1647  0.6313
 6334UDC     C669669   7.226  10.497   3.840 -0.1558 -0.2389  0.2020
 6334UDC     C769670   7.375  10.519   3.786  0.2489 -0.8710  0.0953
 6334UDC     C869671   7.389  10.625   3.679 -0.4134 -0.4342 -0.2367
 6334UDC     C969672   7.305  10.607   3.562 -0.1138  0.0981  0.2064
 6334UDC    C1069673   7.331  10.703   3.437 -0.5174  0.3025 -0.3196
 6334UDC    C1169674   7.474  10.717   3.390 -0.4418  1.0363 -0.6972
 6335UDC     C169675   3.323  13.821  10.756 -0.4823 -0.6211 -0.1111
 6335UDC     C269676   3.214  13.739  10.820  0.3149 -0.3007  0.4626
 6335UDC     C369677   3.240  13.686  10.959 -0.3139  0.3754 -0.2419
 6335UDC     C469678   3.377  13.619  10.958  0.0503 -0.3570 -0.0853
 6335UDC     C569679   3.417  13.571  11.103 -0.6227  0.0315 -0.2111
 6335UDC     C669680   3.563  13.520  11.125  0.3936 -0.6238  0.1095
 6335UDC     C769681   3.640  13.606  11.229 -0.3613  0.3417 -0.4860
 6335UDC     C869682   3.652  13.751  11.191 -0.8454 -0.1093  0.2306
 6335UDC     C969683   3.793  13.810  11.173 -1.2519  0.1740  0.8696
 6335UDC    C1069684   3.763  13.954  11.135 -0.3260 -0.5244  0.0545
 6335UDC    C1169685   3.670  13.993  11.022 -0.5166  0.3667 -0.3249
 6336UDC     C169686   0.567  18.901   0.574 -0.3727  0.2885 -0.1294
 6336UDC     C269687   0.450  18.882   0.659 -0.3705  0.3732  0.1910
 6336UDC     C369688   0.322  18.839   0.579  1.1485 -0.2889  0.7749
 6336UDC     C469689   0.210  18.747   0.636 -0.2272  0.4343 -0.5061
 6336UDC     C569690   0.136  18.663   0.534  0.1605 -0.1220 -0.5934
 6336UDC     C669691   0.055  18.744   0.425  1.5458  0.0001 -0.3921
 6336UDC     C769692  -0.100  18.711   0.407  0.1550  0.4320  0.0860
 6336UDC     C869693  -0.188  18.669   0.521 -0.5589  0.1015  0.5941
 6336UDC     C969694  -0.246  18.531   0.493  1.2368  0.5472  0.3179
 6336UDC    C1069695  -0.312  18.443   0.605  0.2716  0.0982 -0.5030
 6336UDC    C1169696  -0.439  18.370   0.551 -0.5842 -0.4221  0.0218
 6337UDC     C169697  19.323   5.095   0.494  0.0931  1.7889  0.0146
 6337UDC     C269698  19.435   5.010   0.565 -0.8717  0.2411 -0.0868
 6337UDC     C369699  19.350   4.893   0.628  0.2436 -1.7332  0.1060
 6337UDC     C469700  19.215   4.908   0.560  0.6136  0.6484  0.6629
 6337UDC     C569701  19.105   4.823   0.633 -0.3748 -0.8261  0.9500
 6337UDC     C669702  18.968   4.837   0.558  0.4784  0.6060  0.4024
 6337UDC     C769703  18.879   4.717   0.543 -0.2515 -0.3404 -0.5438
 6337UDC     C869704  18.937   4.610   0.442  0.7951 -0.5269 -0.2407
 6337UDC     C969705  18.842   4.486   0.428  1.0594 -0.9210 -0.9401
 6337UDC    C1069706  18.691   4.504   0.438  0.2836 -0.0664 -0.0247
 6337UDC    C1169707  18.611   4.426   0.336  0.1216 -0.5734  0.1440
 6338UDC     C169708  14.288  11.824  17.100  0.1146  0.6455  0.1279
 6338UDC     C269709  14.243  11.778  16.949 -0.2381  0.1131 -0.0252
 6338UDC     C369710  14.136  11.871  16.883  0.1644  0.9873  0.0738
 6338UDC     C469711  14.182  12.018  16.872  0.1619 -1.2195 -0.1174
 6338UDC     C569712  14.072  12.125  16.838  0.8026  0.0436 -0.2091
 6338UDC     C669713  14.128  12.265  16.859 -0.8092 -0.0662  0.1732
 6338UDC     C769714  14.164  12.315  17.002 -0.3187  1.3690  0.0587
 6338UDC     C869715  14.214  12.454  17.023 -1.2025 -0.4600 -0.4989
 6338UDC     C969716  14.145  12.570  16.954 -0.0228 -0.1756 -0.1246
 6338UDC    C1069717  14.232  12.694  16.974  0.2201  1.4253  1.2383
 6338UDC    C1169718  14.185  12.811  16.890 -0.0180 -0.1430 -0.0814
 6339UDC     C169719  18.784   4.408  12.561  0.1412 -1.1586  0.7722
 6339UDC     C269720  18.865   4.421  12.688  0.7273 -0.4885  0.4140
 6339UDC     C369721  18.781   4.422  12.810 -0.4989 -0.7700 -0.0827
 6339UDC     C469722  18.836   4.498  12.930  0.8166  0.3587 -0.2333
 6339UDC     C569723  18.777   4.443  13.063  1.2733 -0.0775  0.2481
 6339UDC     C669724  18.779   4.555  13.168 -0.4207 -0.8207  0.4719
 6339UDC     C769725  18.731   4.688  13.104 -0.4255 -0.1938  0.2586
 6339UDC     C869726  18.700   4.786  13.216 -0.5172 -0.5956  0.0046
 6339UDC     C969727  18.567   4.772  13.300  0.9471  0.3029 -1.0492
 6339UDC    C1069728  18.596   4.813  13.448 -0.2323  1.0572 -0.6313
 6339UDC    C1169729  18.482   4.832  13.555 -0.8670  0.6190  0.0546
 6340UDC     C169730  10.747  11.650  13.167  0.8557  0.3127  0.3928
 6340UDC     C269731  10.865  11.629  13.261 -0.3821  0.6288  0.2888
 6340UDC     C369732  10.999  11.592  13.195  0.8785  0.2096  0.3426
 6340UDC     C469733  11.018  11.443  13.162 -0.6566  0.2766  0.4346
 6340UDC     C569734  11.134  11.409  13.068 -0.1578 -1.3945 -0.2188
 6340UDC     C669735  11.275  11.434  13.126  0.0098  0.0348  0.6686
 6340UDC     C769736  11.399  11.426  13.030  0.4087 -0.2754  0.0441
 6340UDC     C869737  11.531  11.457  13.097  0.1344 -0.0719 -0.1336
 6340UDC     C969738  11.656  11.443  13.016 -1.2092 -0.0877 -0.4008
 6340UDC    C1069739  11.780  11.530  13.076 -0.1407  1.2216 -1.0154
 6340UDC    C1169740  11.901  11.440  13.111  0.4070 -0.1618 -0.2984
 6341UDC     C169741  12.308   6.534  16.956 -0.0164 -0.1554 -0.5717
 6341UDC     C269742  12.318   6.552  17.107  1.0803 -0.0123 -0.0115
 6341UDC     C369743  12.204   6.635  17.172 -1.1724 -0.0270  0.5157
 6341UDC     C469744  12.265   6.755  17.252 -0.2938  0.3456  0.1375
 6341UDC     C569745  12.185   6.837  17.354  0.2617  0.1317 -0.2852
 6341UDC     C669746  12.197   6.779  17.494  0.8972 -0.6439  1.1643
 6341UDC     C769747  12.337   6.736  17.508 -0.3020 -0.6492  0.5998
 6341UDC     C869748  12.401   6.753  17.650 -1.7449  0.1211  0.0910
 6341UDC     C969749  12.325   6.834  17.753  0.1958  0.7878 -0.4739
 6341UDC    C1069750  12.352   6.785  17.896 -1.4396 -0.1923  0.3673
 6341UDC    C1169751  12.505   6.792  17.917  0.3946  0.9675 -0.2419
 6342UDC     C169752  11.940  12.364   6.633  0.6334  0.0472 -0.1852
 6342UDC     C269753  12.070  12.447   6.654 -0.1005 -0.3353  0.6294
 6342UDC     C369754  12.093  12.534   6.524 -0.9750  0.8682 -0.7508
 6342UDC     C469755  12.144  12.669   6.568 -0.4023  0.0585 -0.0963
 6342UDC     C569756  12.124  12.784   6.461  0.5096  0.5204 -0.0101
 6342UDC     C669757  12.176  12.927   6.475  0.0324  0.8184  0.9865
 6342UDC     C769758  12.096  13.041   6.547  0.7476 -0.3813  0.3539
 6342UDC     C869759  11.945  13.071   6.504  0.6583 -0.4595 -0.8658
 6342UDC     C969760  11.898  13.030   6.368  0.3549 -0.1976 -0.4945
 6342UDC    C1069761  11.745  13.044   6.350  0.1688  0.0297  0.6957
 6342UDC    C1169762  11.700  13.191   6.381  0.4159  0.3781 -0.9842
 6343UDC     C169763   7.827  12.321  14.933 -0.1934 -0.5783 -0.3475
 6343UDC     C269764   7.672  12.329  14.948 -0.5722 -0.2655 -0.6907
 6343UDC     C369765   7.641  12.414  15.074  0.7031  0.0370 -0.2519
 6343UDC     C469766   7.496  12.420  15.119  0.0899  0.2549 -0.9346
 6343UDC     C569767   7.438  12.279  15.132 -0.7646  0.5210  0.6951
 6343UDC     C669768   7.294  12.304  15.161  0.0918 -0.0329  0.6270
 6343UDC     C769769   7.229  12.164  15.138 -0.2847 -0.2558 -0.0610
 6343UDC     C869770   7.076  12.152  15.131  0.6216  1.2925  0.9287
 6343UDC     C969771   7.005  12.168  15.270 -0.9739  0.2731 -0.2463
 6343UDC    C1069772   6.863  12.115  15.287  0.1065 -0.1449 -0.3123
 6343UDC    C1169773   6.776  12.176  15.169 -1.1587  0.4640 -1.1764
 6344UDC     C169774   2.009   4.649  10.855 -0.5039 -1.5277 -0.3586
 6344UDC     C269775   2.154   4.670  10.908  0.6776  0.2139 -0.3387
 6344UDC     C369776   2.174   4.699  11.051 -0.9735 -0.4792 -0.5334
 6344UDC     C469777   2.300   4.787  11.062  0.0680  0.6178 -0.2367
 6344UDC     C569778   2.299   4.921  10.993  1.0454 -0.3899  0.3486
 6344UDC     C669779   2.436   4.991  11.031  1.4074  0.2457  0.2234
 6344UDC     C769780   2.454   5.133  10.992 -0.2691 -1.0456  0.3353
 6344UDC     C869781   2.563   5.212  11.071  1.2320 -0.8096 -0.1495
 6344UDC     C969782   2.710   5.171  11.084  1.7639 -0.8104  0.2591
 6344UDC    C1069783   2.784   5.245  11.203 -0.5920  0.6443 -0.4325
 6344UDC    C1169784   2.733   5.384  11.249 -1.1066 -1.0345  0.6268
 6345UDC     C169785  12.196  13.926   7.131  1.7862  0.5844  0.0056
 6345UDC     C269786  12.082  13.897   7.029 -0.3430 -0.2550  0.5053
 6345UDC     C369787  12.092  13.766   6.947  0.2564  0.5268 -0.0892
 6345UDC     C469788  11.991  13.667   6.994  0.9150  1.0737  0.2244
 6345UDC     C569789  12.043  13.569   7.104  1.5542 -0.9755 -0.5923
 6345UDC     C669790  11.940  13.490   7.186 -0.8919 -0.5743 -0.8568
 6345UDC     C769791  11.951  13.523   7.333 -0.5311 -0.1410 -0.0852
 6345UDC     C869792  11.851  13.459   7.430  0.6304  1.3489 -0.4474
 6345UDC     C969793  11.872  13.486   7.580 -0.4481 -0.9288  0.9025
 6345UDC    C1069794  11.757  13.426   7.663 -0.1476 -0.8789 -0.2696
 6345UDC    C1169795  11.617  13.469   7.626  0.1772  0.1148  0.2702
 6346UDC     C169796  17.886   3.697   2.605 -0.9142 -0.3096  0.5982
 6346UDC     C269797  17.903   3.810   2.710  0.3186  0.3356  0.3792
 6346UDC     C369798  18.006   3.768   2.809 -0.4231  1.0528 -0.3783
 6346UDC     C469799  18.007   3.613   2.826 -1.0951 -0.1714  0.1212
 6346UDC     C569800  18.094   3.579   2.956 -0.4715  0.1893  0.3278
 6346UDC     C669801  18.044   3.468   3.048  0.1732  0.4247  0.8449
 6346UDC     C769802  18.090   3.481   3.202  0.0149  0.6933  0.7149
 6346UDC     C869803  18.052   3.346   3.268 -0.3115  1.2320  0.0414
 6346UDC     C969804  17.907   3.326   3.254  0.0178 -0.3275 -0.7212
 6346UDC    C1069805  17.854   3.178   3.236  0.9885 -0.2295 -0.1523
 6346UDC    C1169806  17.700   3.165   3.265  0.0406  0.4005 -0.4033
 6347UDC     C169807   2.942  17.603  15.601  0.7841 -0.1963 -1.3149
 6347UDC     C269808   3.070  17.594  15.520  0.3368 -0.1054  0.6354
 6347UDC     C369809   3.061  17.477  15.418  0.8131 -0.4027 -0.5600
 6347UDC     C469810   3.082  17.338  15.476  0.7336 -0.2589  0.9504
 6347UDC     C569811   3.114  17.267  15.344 -0.2587  1.0130 -1.4935
 6347UDC     C669812   3.155  17.116  15.358 -0.5180 -0.8694  0.0697
 6347UDC     C769813   3.193  17.043  15.230  0.9329 -0.1399 -0.7044
 6347UDC     C869814   3.335  17.022  15.178 -0.1404 -0.0576 -0.2062
 6347UDC     C969815   3.346  16.957  15.037 -0.8925  0.5462  0.8278
 6347UDC    C1069816   3.480  16.976  14.954 -0.2938  0.0973 -0.9743
 6347UDC    C1169817   3.512  17.122  14.911  0.4632 -0.1267  0.6873
 6348UDC     C169818   5.952  14.359  13.738 -0.2814 -0.2669  0.1452
 6348UDC     C269819   5.974  14.502  13.796 -1.1400  0.6567 -0.6016
 6348UDC     C369820   6.129  14.526  13.804  0.3592 -0.2846 -1.9575
 6348UDC     C469821   6.200  14.462  13.919 -0.8785  1.3899  0.6315
 6348UDC     C569822   6.235  14.309  13.894 -0.1269  0.3224 -0.2005
 6348UDC     C669823   6.322  14.264  14.013  0.3728 -0.2823  1.2875
 6348UDC     C769824   6.323  14.115  14.005 -0.2760  1.0458 -0.0199
 6348UDC     C869825   6.458  14.047  14.034 -0.4226 -0.3009 -0.2357
 6348UDC     C969826   6.519  14.038  14.176  0.1690  0.0700  0.1215
 6348UDC    C1069827   6.433  13.969  14.293 -0.8282  0.6339  0.0639
 6348UDC    C1169828   6.349  14.066  14.375  0.0616  0.0986  0.2119
 6349UDC     C169829   8.731  16.108   9.587  0.1676 -0.3740  0.3061
 6349UDC     C269830   8.735  15.958   9.580 -0.0168  1.0074 -0.0750
 6349UDC     C369831   8.602  15.898   9.641 -0.6841  0.2105 -0.5689
 6349UDC     C469832   8.589  15.750   9.650  0.8921  1.1371  0.6411
 6349UDC     C569833   8.471  15.695   9.726 -0.0284 -0.2497 -0.3688
 6349UDC     C669834   8.431  15.784   9.843  0.1476 -0.4590  1.0608
 6349UDC     C769835   8.534  15.837   9.943 -1.4668  0.1298  0.3818
 6349UDC     C869836   8.583  15.713  10.028  0.0523 -0.5952  0.3274
 6349UDC     C969837   8.701  15.731  10.124  0.1750 -0.0463  0.1345
 6349UDC    C1069838   8.836  15.758  10.055 -0.1975  0.4625  0.4160
 6349UDC    C1169839   8.957  15.812  10.134  0.0923  0.3341  0.3247
 6350UDC     C169840   6.564   5.836   0.871  0.1268  0.1635  0.4921
 6350UDC     C269841   6.442   5.928   0.868  0.2623 -0.0582  0.0555
 6350UDC     C369842   6.389   5.956   1.013  0.2459 -0.6392  0.8594
 6350UDC     C469843   6.268   6.047   1.048  1.1547 -0.8351  0.0863
 6350UDC     C569844   6.137   5.960   1.058  0.6090  0.7360 -0.3133
 6350UDC     C669845   6.003   6.036   1.043  0.8942 -0.2696 -0.8863
 6350UDC     C769846   5.983   6.049   0.888 -0.2226  0.0135 -0.2052
 6350UDC     C869847   6.058   6.146   0.798 -0.0779  0.0497 -0.0367
 6350UDC     C969848   6.039   6.089   0.653  0.3059  0.2084 -0.0585
 6350UDC    C1069849   6.121   6.161   0.544  0.4106  0.2523  0.2980
 6350UDC    C1169850   6.259   6.217   0.575 -0.4549 -0.6721 -0.9286
 6351UDC     C169851  15.339  12.435  17.617 -0.3733 -0.1321  0.7254
 6351UDC     C269852  15.234  12.395  17.514  0.6549 -0.0274 -0.7872
 6351UDC     C369853  15.263  12.373  17.361 -0.2383 -0.5525 -0.9613
 6351UDC     C469854  15.120  12.349  17.314 -0.0026  0.0503 -1.8033
 6351UDC     C569855  15.108  12.331  17.165  0.5793  1.0413 -0.3411
 6351UDC     C669856  15.106  12.477  17.102  0.8537  0.9668  0.7955
 6351UDC     C769857  14.963  12.531  17.123  0.0730 -0.7238  0.3187
 6351UDC     C869858  14.942  12.675  17.066 -0.6556  0.1487 -0.4481
 6351UDC     C969859  14.789  12.686  17.064  0.5152  0.0285  0.4352
 6351UDC    C1069860  14.717  12.658  17.198  0.7894 -0.6713  0.6362
 6351UDC    C1169861  14.571  12.618  17.176  0.7100  0.4957 -1.1657
 6352UDC     C169862  18.435  17.725  11.453  0.1163  0.0607 -0.4398
 6352UDC     C269863  18.388  17.674  11.589 -0.5722  0.1495 -0.6164
 6352UDC     C369864  18.523  17.645  11.663 -0.3935 -0.9197  0.6894
 6352UDC     C469865  18.596  17.759  11.738  0.1483 -0.0207  0.1840
 6352UDC     C569866  18.708  17.711  11.832  1.1541 -0.1378  0.0366
 6352UDC     C669867  18.827  17.800  11.878 -0.4439 -0.5137 -0.3382
 6352UDC     C769868  18.945  17.743  11.969 -0.8124  0.2432 -0.6316
 6352UDC     C869869  19.042  17.854  12.005 -0.0322 -0.2281  0.6255
 6352UDC     C969870  19.072  17.933  11.873  0.3118  0.4316 -0.2664
 6352UDC    C1069871  19.148  18.062  11.887 -0.7743  0.0259 -0.9298
 6352UDC    C1169872  19.244  18.097  11.769 -0.0734 -0.9356  0.3018
 6353UDC     C169873  12.512  10.245  13.190  0.5145 -0.0071  0.3309
 6353UDC     C269874  12.587  10.362  13.119 -0.1202 -0.2585 -0.4646
 6353UDC     C369875  12.517  10.418  13.004 -0.2890  1.2404 -0.0238
 6353UDC     C469876  12.556  10.578  13.003 -0.2195  0.5044 -0.3060
 6353UDC     C569877  12.496  10.672  12.895 -0.5046 -0.8357 -0.5515
 6353UDC     C669878  12.528  10.617  12.748  0.5659 -0.3116 -0.2928
 6353UDC     C769879  12.472  10.729  12.655 -0.6420  0.7569 -0.8259
 6353UDC     C869880  12.523  10.874  12.653 -0.4486  0.2272  0.8969
 6353UDC     C969881  12.672  10.904  12.681  0.0750  0.2768  0.4364
 6353UDC    C1069882  12.718  11.050  12.698 -1.0263 -0.3455  0.0235
 6353UDC    C1169883  12.673  11.148  12.589  0.7072  0.8153 -0.0780
 6354UDC     C169884  19.720   1.251   3.327 -0.2923 -0.4622  0.8560
 6354UDC     C269885  19.743   1.404   3.340 -0.9047  1.2542 -0.0316
 6354UDC     C369886  19.888   1.466   3.346 -1.6075 -0.7786  0.2302
 6354UDC     C469887  19.873   1.618   3.340 -0.8155 -0.3292 -0.1199
 6354UDC     C569888  19.730   1.654   3.390 -0.6937  0.3739 -0.2856
 6354UDC     C669889  19.719   1.804   3.413 -1.4613 -0.0422  0.1275
 6354UDC     C769890  19.577   1.837   3.456  0.1304  0.3434  0.7767
 6354UDC     C869891  19.480   1.867   3.337  0.3676  0.4938  0.5442
 6354UDC     C969892  19.554   1.958   3.236 -0.2782 -1.6408 -0.2745
 6354UDC    C1069893  19.486   1.948   3.095  0.5336 -0.4241 -0.3343
 6354UDC    C1169894  19.365   2.025   3.042  0.8198  0.0135 -0.5645
 6355UDC     C169895   8.381  13.946   1.187 -0.5314 -0.0579 -0.2927
 6355UDC     C269896   8.273  14.041   1.122 -0.2474  0.8140  0.4400
 6355UDC     C369897   8.174  13.966   1.036  0.9859 -0.1720  0.3719
 6355UDC     C469898   8.077  13.864   1.098  0.6063 -0.7007  0.5972
 6355UDC     C569899   8.012  13.793   0.980  0.2300  0.9602 -0.6250
 6355UDC     C669900   7.918  13.674   1.005 -0.1810  0.0569  0.0922
 6355UDC     C769901   7.871  13.590   0.882 -0.7726  0.8614 -0.2075
 6355UDC     C869902   7.763  13.663   0.791 -0.2919  0.1648 -0.4576
 6355UDC     C969903   7.636  13.619   0.867 -0.0857  0.3072 -0.3789
 6355UDC    C1069904   7.514  13.690   0.822 -0.4267  0.2218  0.3695
 6355UDC    C1169905   7.396  13.609   0.885 -0.7441 -1.6269  0.0754
 6356UDC     C169906   2.899   4.665   5.236  1.1951 -0.6242  0.4288
 6356UDC     C269907   2.783   4.682   5.338 -0.5321  0.0097  0.2676
 6356UDC     C369908   2.824   4.630   5.475 -0.8721  0.7164 -0.5427
 6356UDC     C469909   2.751   4.689   5.597 -0.8547 -0.0713 -1.4408
 6356UDC     C569910   2.727   4.836   5.586  1.1362 -0.6151 -0.3231
 6356UDC     C669911   2.689   4.931   5.707  0.2889  0.1979 -0.1466
 6356UDC     C769912   2.633   5.061   5.652 -0.4794  1.2833  0.2922
 6356UDC     C869913   2.749   5.163   5.639  0.2351 -0.4780  0.3881
 6356UDC     C969914   2.699   5.310   5.613 -0.5441 -1.1033 -0.3443
 6356UDC    C1069915   2.804   5.422   5.643  0.4831 -0.2156 -0.5402
 6356UDC    C1169916   2.877   5.435   5.778  0.2243  0.6587  0.4296
 6357UDC     C169917   9.237  11.823  12.840 -0.2433 -0.2945  0.3059
 6357UDC     C269918   9.103  11.903  12.809 -1.9860  0.0100  0.1001
 6357UDC     C369919   9.013  11.916  12.927 -0.0403 -0.3494  0.0948
 6357UDC     C469920   9.034  12.027  13.038  0.2566 -0.0446 -0.2105
 6357UDC     C569921   9.054  12.163  12.974  0.6819 -0.6576 -0.1677
 6357UDC     C669922   9.059  12.283  13.074  0.7757 -0.0719  0.0188
 6357UDC     C769923   9.197  12.283  13.138 -0.3716  0.1062 -0.3217
 6357UDC     C869924   9.301  12.341  13.034 -0.5928  0.7473 -0.7741
 6357UDC     C969925   9.447  12.300  13.072 -0.1427 -0.2953 -0.1160
 6357UDC    C1069926   9.523  12.334  12.944  0.0622 -0.1032 -0.9978
 6357UDC    C1169927   9.671  12.340  12.975 -0.7108  0.2901 -0.2049
 6358UDC     C169928  14.032   6.715  16.482  1.2305 -0.3773 -0.2032
 6358UDC     C269929  14.038   6.650  16.345 -0.3360 -0.3317  0.1637
 6358UDC     C369930  14.028   6.740  16.220 -0.5023 -1.4413  0.1519
 6358UDC     C469931  14.035   6.667  16.088  0.5671 -1.0078 -0.0459
 6358UDC     C569932  13.914   6.583  16.058  0.4740  0.2104  0.4676
 6358UDC     C669933  13.786   6.633  15.993 -1.0467  1.1289 -0.0778
 6358UDC     C769934  13.735   6.766  16.046 -0.0455 -0.5368  0.0714
 6358UDC     C869935  13.669   6.857  15.940 -0.1525  0.4905 -0.1784
 6358UDC     C969936  13.755   6.884  15.818  1.0116 -0.8433  0.5090
 6358UDC    C1069937  13.684   6.952  15.696 -0.2355 -0.2138  0.9400
 6358UDC    C1169938  13.784   7.003  15.590  0.3705 -0.2844 -0.0261
 6359UDC     C169939  18.801  11.147  13.365  0.0272  0.4588  0.0440
 6359UDC     C269940  18.666  11.209  13.380  0.7765  0.6582 -0.3551
 6359UDC     C369941  18.551  11.101  13.392 -0.5659  0.0164 -0.3851
 6359UDC     C469942  18.533  11.019  13.517 -0.7241  0.2622  0.0281
 6359UDC     C569943  18.418  10.918  13.512 -0.7095  0.0821  0.7415
 6359UDC     C669944  18.407  10.844  13.645  0.2219 -0.2863  0.2347
 6359UDC     C769945  18.269  10.779  13.668  0.1992  0.4870  0.0210
 6359UDC     C869946  18.179  10.867  13.583 -0.1505  0.2959 -0.5101
 6359UDC     C969947  18.032  10.855  13.609 -1.2375  0.2874 -0.4946
 6359UDC    C1069948  17.926  10.941  13.544  0.6827 -1.3573 -0.8426
 6359UDC    C1169949  17.878  10.926  13.403  0.2704 -1.4363  0.3700
 6360UDC     C169950  18.028   1.588   1.957 -0.8010  0.2390 -0.0459
 6360UDC     C269951  18.110   1.469   2.016  0.4155 -0.3362 -1.1127
 6360UDC     C369952  18.024   1.362   2.088  0.4380  0.3394 -0.2560
 6360UDC     C469953  17.960   1.285   1.963  1.3109 -0.9912  0.4203
 6360UDC     C569954  17.986   1.143   1.933 -0.7298 -0.0150 -0.4837
 6360UDC     C669955  17.948   1.072   1.804 -1.8807  0.0422  0.7831
 6360UDC     C769956  17.802   1.031   1.813  0.5214  0.6752  0.4295
 6360UDC     C869957  17.780   0.956   1.940  0.5111  0.8127 -0.3867
 6360UDC     C969958  17.648   0.903   1.991  0.2284 -0.0961  0.4272
 6360UDC    C1069959  17.644   0.799   2.112 -0.0355 -0.8892  1.2097
 6360UDC    C1169960  17.501   0.787   2.146  0.1844 -0.3634 -0.0706
 6361UDC     C169961  19.356   9.799   5.843  0.3154  0.0153  0.1741
 6361UDC     C269962  19.200   9.794   5.860  0.5051  0.4653  0.8146
 6361UDC     C369963  19.145   9.920   5.926 -1.1374 -0.1746  0.7350
 6361UDC     C469964  18.995   9.919   5.941  0.5902  0.5543 -0.3124
 6361UDC     C569965  18.963   9.900   6.089 -0.3922  1.3598  0.1032
 6361UDC     C669966  18.926   9.764   6.144 -0.1361 -0.1771  1.1800
 6361UDC     C769967  18.911   9.779   6.293  0.2306  0.6297  1.2718
 6361UDC     C869968  18.823   9.670   6.355 -0.1855  0.8576 -0.5949
 6361UDC     C969969  18.889   9.662   6.490  0.2667 -0.7300  0.6056
 6361UDC    C1069970  18.840   9.787   6.567 -0.2344  0.4014  0.1621
 6361UDC    C1169971  18.807   9.780   6.717 -0.0137 -0.2952  0.3673
 6362UDC     C169972  13.970  11.586   0.240 -0.4366  1.0731  1.0469
 6362UDC     C269973  14.109  11.592   0.159 -0.4286  0.4036 -0.6321
 6362UDC     C369974  14.154  11.464   0.088  0.5812 -0.2326  0.4201
 6362UDC     C469975  14.107  11.485  -0.058  0.0274 -0.0854 -0.0421
 6362UDC     C569976  14.060  11.353  -0.127 -0.4411 -1.2167  0.1620
 6362UDC     C669977  14.047  11.373  -0.276  0.2665  0.3268  0.0692
 6362UDC     C769978  13.925  11.435  -0.333  0.1374 -0.1521  0.1759
 6362UDC     C869979  13.824  11.363  -0.426 -0.2217  0.5869 -1.0245
 6362UDC     C969980  13.695  11.431  -0.481 -0.8082  1.0204 -0.8944
 6362UDC    C1069981  13.616  11.338  -0.575  0.2090 -0.3178  0.5637
 6362UDC    C1169982  13.691  11.283  -0.705  0.4790 -0.1653  0.4032
 6363UDC     C169983  10.056   8.113  11.987  1.3136  0.4244 -0.0166
 6363UDC     C269984  10.149   8.054  12.093  0.9219 -1.1587 -1.2272
 6363UDC     C369985  10.297   8.089  12.094  0.0458  0.7866  0.6090
 6363UDC     C469986  10.320   8.235  12.055  0.9131 -0.4618  0.1350
 6363UDC     C569987  10.467   8.247  12.004  0.1128 -0.2494 -0.0917
 6363UDC     C669988  10.507   8.384  11.962  0.4103 -0.5847  0.1644
 6363UDC     C769989  10.642   8.390  11.884  1.5263  0.3042 -0.1885
 6363UDC     C869990  10.780   8.359  11.955  1.2434  0.5389  0.4672
 6363UDC     C969991  10.839   8.469  12.049 -0.1313 -0.7724 -0.5253
 6363UDC    C1069992  10.993   8.458  12.084  0.2437  0.3787 -0.7693
 6363UDC    C1169993  11.050   8.507  12.216  0.5928  0.5511 -0.3327
 6364UDC     C169994  16.319   3.757   6.829 -0.5336  0.4697 -0.9899
 6364UDC     C269995  16.453   3.829   6.820 -0.4923 -0.3513  0.8613
 6364UDC     C369996  16.433   3.944   6.718  0.5146 -0.3346  0.4703
 6364UDC     C469997  16.430   3.895   6.566 -0.5378 -0.0983 -0.0938
 6364UDC     C569998  16.440   4.002   6.466 -0.7166 -1.2464  0.6954
 6364UDC     C669999  16.477   3.973   6.324  0.2418 -0.3836 -0.0203
 6364UDC     C770000  16.490   4.087   6.228  1.9714 -0.1259  0.0650
 6364UDC     C870001  16.537   4.040   6.083 -1.0175  0.0032 -0.0009
 6364UDC     C970002  16.538   4.147   5.972 -0.1979 -0.4265  1.4369
 6364UDC    C1070003  16.577   4.077   5.833 -0.1512 -1.2024 -0.9378
 6364UDC    C1170004  16.617   4.162   5.711  0.2644  0.5422  0.2538
 6365UDC     C170005  15.512   5.966   7.523  0.8205  0.4161 -0.1310
 6365UDC     C270006  15.632   5.924   7.443 -0.5527  0.5356 -0.1757
 6365UDC     C370007  15.602   5.777   7.386  0.2599 -0.7056 -0.4032
 6365UDC     C470008  15.695   5.739   7.266  1.2977 -0.4948 -0.4733
 6365UDC     C570009  15.840   5.734   7.299 -0.2493 -0.9066 -0.6277
 6365UDC     C670010  15.900   5.602   7.248 -0.0133  0.1199  0.1234
 6365UDC     C770011  16.047   5.553   7.287  0.4059  0.8321 -0.2697
 6365UDC     C870012  16.085   5.421   7.220 -0.0302  0.5667 -0.4266
 6365UDC     C970013  16.074   5.414   7.064 -0.1808  0.5332 -0.5819
 6365UDC    C1070014  16.118   5.279   7.002  0.2737 -0.1324 -0.3406
 6365UDC    C1170015  16.249   5.227   7.075  0.3812  0.5801  1.1933
 6366UDC     C170016   6.572   0.443  19.076 -0.0053 -0.2621  0.2036
 6366UDC     C270017   6.517   0.290  19.073  0.7137 -0.1257  0.9623
 6366UDC     C370018   6.447   0.212  18.958  0.3323  0.9184  1.5044
 6366UDC     C470019   6.453   0.054  18.969  0.2576  0.2630 -0.9661
 6366UDC     C570020   6.421  -0.018  18.842 -0.7416  0.9131  1.2116
 6366UDC     C670021   6.544  -0.080  18.758  0.1340 -0.8214  0.0011
 6366UDC     C770022   6.622  -0.191  18.826 -0.8004  1.2867  0.0329
 6366UDC     C870023   6.715  -0.288  18.747 -0.9538  0.6244 -0.3066
 6366UDC     C970024   6.660  -0.403  18.676 -0.8972  0.3858  1.7774
 6366UDC    C1070025   6.786  -0.484  18.646  0.7926  0.6261 -0.4752
 6366UDC    C1170026   6.763  -0.635  18.610 -1.0032  0.0107  0.3567
 6367UDC     C170027  13.800  10.817   5.705  0.7051  0.8195 -0.3569
 6367UDC     C270028  13.711  10.697   5.657  0.3540 -0.6110 -0.1444
 6367UDC     C370029  13.770  10.595   5.558 -0.3508 -0.4042  0.4154
 6367UDC     C470030  13.868  10.666   5.459  0.1958  0.3184  0.4317
 6367UDC     C570031  13.951  10.579   5.357 -0.4430 -0.4480  0.4023
 6367UDC     C670032  14.017  10.650   5.239 -0.9002  0.1199 -0.2648
 6367UDC     C770033  14.161  10.598   5.192  0.9155 -0.3174 -0.5557
 6367UDC     C870034  14.153  10.442   5.208 -0.0723 -0.5079 -0.1630
 6367UDC     C970035  14.259  10.358   5.137 -0.2542  0.2364  1.2490
 6367UDC    C1070036  14.236  10.205   5.160 -0.6079  0.3585  0.1538
 6367UDC    C1170037  14.178  10.146   5.031 -0.2856  0.3394  0.3677
 6368UDC     C170038  18.274  10.473   2.127 -0.4312 -1.2107 -0.5489
 6368UDC     C270039  18.267  10.613   2.060 -0.6741  0.5842  0.7442
 6368UDC     C370040  18.276  10.625   1.902  0.0827 -0.0755  0.1008
 6368UDC     C470041  18.183  10.721   1.822  0.5427  0.0059  0.5475
 6368UDC     C570042  18.203  10.689   1.666  0.8379 -1.0595  0.1954
 6368UDC     C670043  18.117  10.775   1.580 -1.7303 -0.6443 -0.1368
 6368UDC     C770044  17.971  10.783   1.619  0.2582  0.2603  0.3882
 6368UDC     C870045  17.878  10.657   1.632 -0.9807 -0.3858  0.8943
 6368UDC     C970046  17.817  10.637   1.776  0.1331 -0.1399 -0.4248
 6368UDC    C1070047  17.870  10.513   1.848 -1.3104  0.4612 -0.0500
 6368UDC    C1170048  17.771  10.515   1.966 -0.1287  0.5482  0.6352
 6369UDC     C170049   0.058  13.541   9.774  0.5572 -0.4777  0.7237
 6369UDC     C270050   0.012  13.425   9.686  0.8365 -0.3909 -0.3167
 6369UDC     C370051  -0.070  13.469   9.560  0.6970  0.3038  0.1666
 6369UDC     C470052  -0.021  13.557   9.446 -0.4657  0.1482  1.1357
 6369UDC     C570053  -0.076  13.512   9.308  1.6570 -0.8802  0.5444
 6369UDC     C670054  -0.223  13.468   9.316  0.3007  0.2006  0.3495
 6369UDC     C770055  -0.273  13.428   9.176 -0.5690 -0.1190  0.4760
 6369UDC     C870056  -0.359  13.306   9.180 -0.1077  1.2173  0.1083
 6369UDC     C970057  -0.479  13.320   9.274  1.2212 -0.4537  0.7685
 6369UDC    C1070058  -0.603  13.234   9.234 -0.0364 -0.5787 -0.8755
 6369UDC    C1170059  -0.545  13.093   9.233 -0.1107  0.1698 -0.1665
 6370UDC     C170060  17.755   9.566  18.567 -0.3495  0.0136 -0.0752
 6370UDC     C270061  17.712   9.525  18.707  1.2966  0.6108 -0.2286
 6370UDC     C370062  17.708   9.367  18.737  1.0206 -1.7782 -0.4111
 6370UDC     C470063  17.570   9.311  18.692  0.0132  0.0200 -0.1162
 6370UDC     C570064  17.531   9.160  18.677  1.3203 -0.3323 -0.0247
 6370UDC     C670065  17.380   9.141  18.638 -0.6135  0.1377 -0.0644
 6370UDC     C770066  17.361   8.996  18.578 -0.2296  1.0078 -0.8385
 6370UDC     C870067  17.203   8.966  18.559 -1.3753 -0.1018  1.0832
 6370UDC     C970068  17.155   8.823  18.593 -0.6899 -0.9629 -0.3922
 6370UDC    C1070069  17.009   8.831  18.609  0.7870  0.3241  0.3442
 6370UDC    C1170070  16.951   8.904  18.730 -0.5804  0.5854  0.6774
 6371UDC     C170071   7.703   9.577   4.423  0.0020  0.9952 -0.9515
 6371UDC     C270072   7.571   9.517   4.487 -0.0054  0.1709 -0.2112
 6371UDC     C370073   7.479   9.612   4.569  0.4660  0.2482  0.1462
 6371UDC     C470074   7.338   9.539   4.592 -0.5929 -0.1140 -0.4403
 6371UDC     C570075   7.233   9.609   4.676 -0.6795  0.6848 -0.5990
 6371UDC     C670076   7.090   9.550   4.684 -0.8971 -0.3958 -0.6144
 6371UDC     C770077   7.006   9.673   4.717  0.3542  0.9490  0.5200
 6371UDC     C870078   6.854   9.642   4.704  0.6823  0.3924 -1.1126
 6371UDC     C970079   6.768   9.756   4.777 -0.6390  0.5442  0.4212
 6371UDC    C1070080   6.789   9.725   4.931  0.9068 -0.1117  0.2147
 6371UDC    C1170081   6.778   9.585   4.999 -0.0955 -1.0845 -0.0999
 6372UDC     C170082  14.238   6.655  13.878  0.2034 -0.7351 -1.3472
 6372UDC     C270083  14.211   6.510  13.832 -0.2837  0.6837  0.1765
 6372UDC     C370084  14.341   6.431  13.854  0.2271  0.5498 -0.0174
 6372UDC     C470085  14.459   6.474  13.779 -0.9790 -0.5419  0.2537
 6372UDC     C570086  14.600   6.449  13.836  1.2887 -0.2626  0.0078
 6372UDC     C670087  14.723   6.498  13.756 -0.0778 -0.2526 -0.9096
 6372UDC     C770088  14.849   6.439  13.812 -0.7435  0.8578  0.5482
 6372UDC     C870089  14.894   6.435  13.959  0.4464  0.8358  0.6822
 6372UDC     C970090  15.000   6.325  13.997 -0.4445  0.7690 -1.3644
 6372UDC    C1070091  15.024   6.327  14.146  0.1197 -0.2809  1.3065
 6372UDC    C1170092  15.071   6.189  14.191 -1.0005 -0.0458  0.3204
 6373UDC     C170093   4.413   9.950  11.735 -0.4977 -0.0843  0.0342
 6373UDC     C270094   4.529   9.895  11.644  0.8559  0.3874  0.1361
 6373UDC     C370095   4.675   9.919  11.680 -0.0148  0.3046 -0.2066
 6373UDC     C470096   4.762   9.849  11.566 -0.5131  0.0749  0.5762
 6373UDC     C570097   4.715   9.908  11.435 -0.3820  0.1556  0.1113
 6373UDC     C670098   4.790   9.865  11.311 -0.1735  0.2009  0.2522
 6373UDC     C770099   4.689   9.828  11.198  0.6908  0.7074 -0.7492
 6373UDC     C870100   4.752   9.809  11.054 -0.5886  1.1086 -1.1047
 6373UDC     C970101   4.835   9.929  11.019 -0.2024  0.3060 -0.1090
 6373UDC    C1070102   4.977   9.877  10.988  0.6759 -0.0956  0.7524
 6373UDC    C1170103   5.010   9.907  10.838  0.7041  1.2844 -0.1039
 6374UDC     C170104   4.041  14.207  12.800 -0.0773  0.1052 -0.4691
 6374UDC     C270105   3.995  14.350  12.788  0.5259 -0.3955  0.9008
 6374UDC     C370106   4.064  14.439  12.887  0.5658 -1.2756  0.1032
 6374UDC     C470107   4.200  14.511  12.864  0.7663  0.0661  0.0442
 6374UDC     C570108   4.190  14.616  12.743  0.3531  0.2357 -1.0499
 6374UDC     C670109   4.332  14.678  12.747 -0.1550 -0.3307  0.1678
 6374UDC     C770110   4.318  14.810  12.666 -0.3931 -0.7599  0.1961
 6374UDC     C870111   4.447  14.893  12.678 -0.8766  0.1848  0.0372
 6374UDC     C970112   4.428  15.044  12.647 -0.5219 -0.9331  1.1763
 6374UDC    C1070113   4.550  15.144  12.659 -0.4260  0.5038 -0.4356
 6374UDC    C1170114   4.651  15.137  12.554 -0.2585 -0.1994  0.1564
 6375UDC     C170115  11.135  12.371   6.914  0.7727  0.1923 -0.3238
 6375UDC     C270116  11.282  12.327   6.890  0.6054  0.0845 -0.5310
 6375UDC     C370117  11.404  12.384   6.971  0.5728 -1.5648 -0.2371
 6375UDC     C470118  11.407  12.536   6.989 -0.1384  0.0679 -1.9967
 6375UDC     C570119  11.511  12.601   6.902 -0.9756 -0.0119 -0.2403
 6375UDC     C670120  11.500  12.752   6.897 -0.8836  0.6393  1.0219
 6375UDC     C770121  11.623  12.797   6.816  0.6259 -0.7043 -0.0557
 6375UDC     C870122  11.634  12.751   6.674  0.8051  1.5428  0.8539
 6375UDC     C970123  11.771  12.739   6.599  0.5012  0.3853 -0.0885
 6375UDC    C1070124  11.750  12.685   6.458 -1.6062 -0.1184  0.1132
 6375UDC    C1170125  11.603  12.675   6.396 -0.4276 -0.0020  0.6455
 6376UDC     C170126  13.108   9.419   8.708  0.0394  0.1692  0.7857
 6376UDC     C270127  12.959   9.456   8.729  0.3441  0.2978  0.0968
 6376UDC     C370128  12.889   9.438   8.597  0.4819  0.3744  0.3941
 6376UDC     C470129  12.863   9.569   8.516 -0.4641 -0.1228 -1.3681
 6376UDC     C570130  12.807   9.554   8.381 -0.5953  0.0785  0.3674
 6376UDC     C670131  12.734   9.688   8.334 -1.6319  0.1907  0.9939
 6376UDC     C770132  12.678   9.676   8.191 -1.0365  0.1366 -0.4719
 6376UDC     C870133  12.576   9.785   8.156 -0.1189 -0.1722 -0.3857
 6376UDC     C970134  12.464   9.745   8.056 -0.2399 -1.0142 -0.4058
 6376UDC    C1070135  12.372   9.861   8.025  0.7790 -0.6379  1.3129
 6376UDC    C1170136  12.247   9.833   8.113  0.7648 -0.4981  0.1566
 6377UDC     C170137   0.119  10.107   3.481 -0.8811  0.3206  0.4054
 6377UDC     C270138   0.216  10.010   3.400  0.0793 -0.5584  0.3923
 6377UDC     C370139   0.171   9.994   3.251 -0.3206 -0.5024 -0.4126
 6377UDC     C470140   0.182  10.132   3.191  0.0834  0.0651  0.3157
 6377UDC     C570141   0.321  10.192   3.226 -0.0126  0.0729 -0.7238
 6377UDC     C670142   0.314  10.341   3.221  0.3917  0.2079  0.0752
 6377UDC     C770143   0.448  10.422   3.215  1.2942  0.0185 -0.0348
 6377UDC     C870144   0.441  10.575   3.242  0.4941  0.1404  1.4784
 6377UDC     C970145   0.507  10.628   3.365 -0.4450  0.2324  1.0569
 6377UDC    C1070146   0.658  10.619   3.370  1.2841  0.2071 -0.6668
 6377UDC    C1170147   0.715  10.666   3.504  0.3419  0.0376  1.3514
 6378UDC     C170148  13.828  14.062   6.351 -0.3463 -0.2607  0.6531
 6378UDC     C270149  13.805  14.064   6.495  0.5552  1.0146  0.2337
 6378UDC     C370150  13.833  14.195   6.570 -0.8752  0.0322 -0.0077
 6378UDC     C470151  13.829  14.168   6.715  0.1388 -0.8827 -0.0052
 6378UDC     C570152  13.927  14.251   6.794  0.4183  0.0274  0.9941
 6378UDC     C670153  13.909  14.244   6.939  0.0483 -0.3943 -0.6380
 6378UDC     C770154  13.775  14.315   6.985 -1.2609 -0.0013  0.1604
 6378UDC     C870155  13.806  14.469   6.976  0.3956 -0.5961  0.0353
 6378UDC     C970156  13.679  14.543   6.939  0.3838 -0.3968 -0.9186
 6378UDC    C1070157  13.717  14.685   6.893 -0.2385  0.3563  0.2135
 6378UDC    C1170158  13.602  14.793   6.907 -0.8966  0.0555 -0.0092
 6379UDC     C170159  11.450   1.343  18.486  0.6809  0.7431 -0.6224
 6379UDC     C270160  11.355   1.245  18.422 -0.3551  0.2252 -0.2577
 6379UDC     C370161  11.341   1.261  18.266  0.0084 -0.8856 -0.5456
 6379UDC     C470162  11.238   1.164  18.211 -0.4811  0.2647 -0.0898
 6379UDC     C570163  11.191   1.167  18.066  0.4853  0.2911  0.3581
 6379UDC     C670164  11.108   1.290  18.018 -1.2292 -0.4661  0.1606
 6379UDC     C770165  11.187   1.420  18.000  0.3183  0.1568  0.4623
 6379UDC     C870166  11.252   1.436  17.861  0.4488 -1.6751 -0.0866
 6379UDC     C970167  11.313   1.576  17.845 -0.6256 -0.8059 -0.3403
 6379UDC    C1070168  11.236   1.648  17.733 -0.2196 -1.6586  0.5996
 6379UDC    C1170169  11.122   1.566  17.690  0.3599  0.2199  1.1370
 6380UDC     C170170  16.412   6.288   3.860 -0.1119 -1.4403  0.0889
 6380UDC     C270171  16.418   6.432   3.801  0.1722  0.2368 -0.6175
 6380UDC     C370172  16.337   6.518   3.883  0.4800 -0.0916 -0.4450
 6380UDC     C470173  16.193   6.534   3.823 -0.1876 -0.1227 -0.5978
 6380UDC     C570174  16.155   6.671   3.877 -1.0978 -0.4928 -0.6026
 6380UDC     C670175  16.238   6.779   3.806 -0.5664  0.2170  0.8860
 6380UDC     C770176  16.153   6.908   3.795  0.3091 -0.0806 -0.4995
 6380UDC     C870177  16.038   6.892   3.699 -0.4186 -0.4402  0.5425
 6380UDC     C970178  16.030   7.030   3.653  0.0914 -0.1491 -0.0574
 6380UDC    C1070179  15.931   7.065   3.543 -0.5447  0.7092  0.5982
 6380UDC    C1170180  16.000   7.070   3.399 -0.0763 -1.3434  0.5654
 6381UDC     C170181   3.457  17.154  13.167  0.3752  0.0060 -0.3489
 6381UDC     C270182   3.521  17.229  13.292  0.3104 -0.3905 -0.3819
 6381UDC     C370183   3.664  17.289  13.287  0.7307 -0.3737 -0.4460
 6381UDC     C470184   3.697  17.361  13.418 -0.3309 -0.4427 -0.7703
 6381UDC     C570185   3.833  17.434  13.411  0.7093  0.2684 -0.5432
 6381UDC     C670186   3.946  17.337  13.455  0.2714 -0.3689  0.2936
 6381UDC     C770187   4.075  17.418  13.481 -0.1061 -0.3282 -0.3910
 6381UDC     C870188   4.189  17.333  13.533 -0.4068  0.1967 -0.0884
 6381UDC     C970189   4.313  17.417  13.567 -0.2225 -0.9634 -0.2713
 6381UDC    C1070190   4.392  17.452  13.439  0.1367  1.0906  0.1890
 6381UDC    C1170191   4.439  17.599  13.434 -0.5102 -0.1632 -0.6974
 6382UDC     C170192   0.602  12.089  18.578 -0.1330 -0.7678  0.5468
 6382UDC     C270193   0.520  12.168  18.476 -0.1866  0.2457 -0.8809
 6382UDC     C370194   0.581  12.314  18.475 -0.4851  0.6784 -0.0877
 6382UDC     C470195   0.504  12.409  18.384 -0.7628 -0.3831  0.3156
 6382UDC     C570196   0.372  12.463  18.431 -0.3815 -0.8923  0.6156
 6382UDC     C670197   0.328  12.586  18.348 -0.2111 -1.6692 -0.4750
 6382UDC     C770198   0.197  12.644  18.420 -0.7961  0.6254  0.6450
 6382UDC     C870199   0.116  12.730  18.316 -0.4128  1.4347 -0.0827
 6382UDC     C970200  -0.014  12.807  18.355 -0.1347  0.1010 -0.0932
 6382UDC    C1070201  -0.083  12.903  18.256  0.3169  0.5817  0.8467
 6382UDC    C1170202   0.012  13.020  18.217 -0.1003  0.0877 -0.9479
 6383UDC     C170203   0.142   7.667  10.318  0.2164 -1.2560 -0.0552
 6383UDC     C270204   0.064   7.556  10.388 -1.5721  1.1791 -1.2420
 6383UDC     C370205   0.089   7.396  10.343  0.0999 -0.7915  0.2164
 6383UDC     C470206  -0.030   7.305  10.380 -0.2299  0.9913  0.1730
 6383UDC     C570207  -0.037   7.265  10.526 -0.0050  0.2198  0.2260
 6383UDC     C670208   0.070   7.170  10.558  0.1614  0.0908  0.2192
 6383UDC     C770209   0.085   7.108  10.701 -0.0111 -1.3367  0.7280
 6383UDC     C870210   0.202   7.012  10.704  0.0043 -0.3585 -0.7078
 6383UDC     C970211   0.204   6.931  10.835 -1.2255  0.0135  1.9244
 6383UDC    C1070212   0.301   6.814  10.832  1.2073  0.3678  0.9706
 6383UDC    C1170213   0.449   6.854  10.801 -0.2349 -0.4522  0.1603
 6384UDC     C170214  10.897   0.773  17.754 -0.5439  0.2495 -0.8772
 6384UDC     C270215  11.037   0.818  17.704  0.3902  0.6036  0.9547
 6384UDC     C370216  11.121   0.881  17.807  0.5909  0.5341 -0.3081
 6384UDC     C470217  11.272   0.862  17.820 -0.5283 -0.2416 -0.4731
 6384UDC     C570218  11.313   0.947  17.696 -0.6417  0.7599  0.2008
 6384UDC     C670219  11.450   1.015  17.708  0.6243  1.1892 -1.2287
 6384UDC     C770220  11.550   0.958  17.817  0.0548 -0.0633  0.0327
 6384UDC     C870221  11.605   0.819  17.807 -1.1203  0.4883 -0.8609
 6384UDC     C970222  11.562   0.732  17.931  0.9025  0.5365 -0.3007
 6384UDC    C1070223  11.657   0.614  17.972  0.6432 -0.4669 -0.3536
 6384UDC    C1170224  11.612   0.544  18.104  0.5782 -0.2226 -0.2072
 6385UDC     C170225   7.450   9.858  11.809 -0.9236 -0.0499  0.6889
 6385UDC     C270226   7.589   9.795  11.818  0.1197 -0.7444  0.4166
 6385UDC     C370227   7.631   9.751  11.967 -0.3632  0.1255  0.3362
 6385UDC     C470228   7.761   9.824  12.005 -0.6976  0.8936  0.2527
 6385UDC     C570229   7.740   9.969  12.021 -0.3204 -1.6569 -0.9363
 6385UDC     C670230   7.843  10.034  12.114  0.0492  0.2973  1.4008
 6385UDC     C770231   7.827  10.189  12.121  0.0410 -0.0982 -0.2321
 6385UDC     C870232   7.873  10.252  11.987  1.4322 -0.3607  0.7106
 6385UDC     C970233   7.867  10.407  11.998 -0.3101 -0.1125 -0.5078
 6385UDC    C1070234   7.924  10.458  12.132 -0.3690 -0.6453  0.7630
 6385UDC    C1170235   7.905  10.612  12.172  0.5331  0.0736 -0.3552
 6386UDC     C170236  19.856   0.789   4.725  0.1970  0.5826 -1.4925
 6386UDC     C270237  19.899   0.727   4.589 -0.1493  0.3675  0.3588
 6386UDC     C370238  19.785   0.685   4.485 -0.6803  0.3933 -1.2155
 6386UDC     C470239  19.724   0.546   4.472 -0.9356  0.0449  1.5994
 6386UDC     C570240  19.596   0.557   4.390  0.5857  0.0389 -0.3810
 6386UDC     C670241  19.502   0.664   4.444  0.3675 -0.7313 -0.0321
 6386UDC     C770242  19.366   0.675   4.371  1.4561  0.0620  0.5382
 6386UDC     C870243  19.266   0.772   4.467  0.0948  0.3947  0.9263
 6386UDC     C970244  19.341   0.909   4.495  0.0537 -1.4594 -0.0571
 6386UDC    C1070245  19.230   1.018   4.515  0.1819  0.3423  0.0936
 6386UDC    C1170246  19.300   1.127   4.597 -0.2922  0.2481 -0.2948
 6387UDC     C170247   2.908   1.849   7.944 -0.7914 -0.5522 -0.4296
 6387UDC     C270248   2.961   1.822   7.801 -0.1747 -0.3453 -0.7180
 6387UDC     C370249   3.114   1.833   7.802 -0.1570 -0.4506  0.0545
 6387UDC     C470250   3.213   1.719   7.852  0.9393  0.3433  0.2288
 6387UDC     C570251   3.177   1.576   7.822  1.0509 -0.8210  0.5948
 6387UDC     C670252   3.295   1.486   7.857  0.7824  0.2410 -0.2553
 6387UDC     C770253   3.275   1.356   7.771  0.2511 -0.0786 -0.5750
 6387UDC     C870254   3.394   1.253   7.793 -0.1967 -0.1555  1.1762
 6387UDC     C970255   3.422   1.199   7.935 -0.7706  0.5444 -0.1900
 6387UDC    C1070256   3.489   1.060   7.911  0.0406 -0.3291 -0.0846
 6387UDC    C1170257   3.391   0.964   7.851 -0.1028  0.5737 -0.3497
 6388UDC     C170258  13.200  13.145   8.094 -0.0349  0.0658 -0.6081
 6388UDC     C270259  13.295  13.264   8.109 -0.2764  0.7081 -0.2483
 6388UDC     C370260  13.263  13.415   8.093 -0.5207  0.1106  0.4725
 6388UDC     C470261  13.389  13.502   8.080 -0.1674 -0.4091  0.1837
 6388UDC     C570262  13.475  13.516   8.212 -0.1436 -0.0303  0.4431
 6388UDC     C670263  13.550  13.652   8.193 -0.1650  0.1656 -0.4203
 6388UDC     C770264  13.694  13.630   8.145 -0.6238  0.5686 -1.1225
 6388UDC     C870265  13.709  13.685   8.001  0.2443  1.0605  0.1787
 6388UDC     C970266  13.700  13.840   7.973  0.6775  0.6511 -0.5165
 6388UDC    C1070267  13.675  13.856   7.817  0.6702  1.3394 -0.0464
 6388UDC    C1170268  13.552  13.759   7.797  0.2878  0.1774 -0.7123
 6389UDC     C170269  19.496   7.541  11.260 -0.2379 -0.8730 -0.0089
 6389UDC     C270270  19.529   7.476  11.388  0.4273  0.4071  1.2215
 6389UDC     C370271  19.468   7.542  11.515 -0.9200 -0.1902  0.6275
 6389UDC     C470272  19.478   7.694  11.549  0.0570 -0.3437  1.3587
 6389UDC     C570273  19.404   7.749  11.671  0.0066  0.5261  0.2946
 6389UDC     C670274  19.417   7.671  11.808  0.4205 -0.5566  0.4636
 6389UDC     C770275  19.286   7.716  11.872 -0.0584  0.4871  0.5328
 6389UDC     C870276  19.311   7.805  11.984  0.4563  0.8599 -0.3040
 6389UDC     C970277  19.173   7.882  12.007 -1.1374  1.0171 -0.4725
 6389UDC    C1070278  19.055   7.788  12.042  0.2557  0.3379  0.7316
 6389UDC    C1170279  19.088   7.712  12.170 -0.2714  0.0852  0.4032
 6390UDC     C170280  15.288  13.104   2.090  1.6969 -0.5253  0.1578
 6390UDC     C270281  15.220  13.105   1.947  0.1532  0.2754  0.0266
 6390UDC     C370282  15.179  12.975   1.878  1.1706 -1.0231 -0.5625
 6390UDC     C470283  15.297  12.886   1.855 -0.1059  0.6370 -0.5081
 6390UDC     C570284  15.269  12.785   1.744  0.3999  0.1756 -0.8443
 6390UDC     C670285  15.360  12.661   1.740  0.7191  0.0008  0.9245
 6390UDC     C770286  15.341  12.579   1.865 -0.3743 -0.8505  0.4745
 6390UDC     C870287  15.469  12.490   1.894  0.4430 -0.2596  1.1844
 6390UDC     C970288  15.455  12.361   1.819  0.5640  0.7184  0.3964
 6390UDC    C1070289  15.579  12.271   1.834 -0.1676 -0.7256  0.1562
 6390UDC    C1170290  15.595  12.128   1.777 -0.7970 -0.2815  0.6931
 6391UDC     C170291   3.721   4.813  11.861 -0.2024  0.0580 -0.2429
 6391UDC     C270292   3.858   4.809  11.937  0.0621  0.5719  0.6875
 6391UDC     C370293   3.866   4.670  11.988 -0.2826  0.2555 -0.7894
 6391UDC     C470294   4.011   4.632  11.991  0.2138 -0.1903 -0.0333
 6391UDC     C570295   4.087   4.638  11.856  0.5168  0.9094 -1.0352
 6391UDC     C670296   4.217   4.565  11.848  0.1723 -0.1342  0.4360
 6391UDC     C770297   4.267   4.555  11.704  0.3152  0.3846 -0.0036
 6391UDC     C870298   4.409   4.501  11.699  0.4614  0.2238 -1.1582
 6391UDC     C970299   4.514   4.606  11.726  0.2808 -0.2353 -0.6904
 6391UDC    C1070300   4.650   4.545  11.701  0.2211  0.1306 -0.4598
 6391UDC    C1170301   4.764   4.650  11.710  0.6402  0.2071  0.4075
 6392UDC     C170302  13.671   8.605  17.131  0.3558 -0.1324 -0.3051
 6392UDC     C270303  13.752   8.663  17.245  0.0900 -1.0362 -0.4234
 6392UDC     C370304  13.666   8.686  17.366 -0.3265  0.4748  0.4702
 6392UDC     C470305  13.735   8.687  17.510  1.2018  1.3344  0.1719
 6392UDC     C570306  13.831   8.569  17.541  0.7299 -0.0039 -0.1839
 6392UDC     C670307  13.751   8.440  17.526 -0.1525  0.2414  0.2238
 6392UDC     C770308  13.838   8.314  17.497 -0.3287 -0.6939  1.1104
 6392UDC     C870309  13.801   8.177  17.564 -0.5227  0.0307  0.8051
 6392UDC     C970310  13.921   8.088  17.574  0.0896 -0.0968  0.1990
 6392UDC    C1070311  13.987   8.067  17.444 -0.1999 -0.3716  0.9762
 6392UDC    C1170312  14.102   7.970  17.466 -0.6498  0.0505  0.4311
 6393UDC     C170313   9.478   8.105  10.537 -0.3856  0.1172 -0.6980
 6393UDC     C270314   9.627   8.103  10.503  0.5640  0.2697  0.1016
 6393UDC     C370315   9.720   8.122  10.637 -0.1443  1.1653 -0.5308
 6393UDC     C470316   9.693   8.227  10.740 -0.7400  0.3940 -0.5820
 6393UDC     C570317   9.759   8.192  10.877 -0.1160  1.6752  0.0885
 6393UDC     C670318   9.768   8.312  10.967  0.6326 -0.2540  0.1647
 6393UDC     C770319   9.779   8.289  11.123 -0.9212  0.2697 -0.4126
 6393UDC     C870320   9.793   8.407  11.220  0.6762  0.9753  0.6233
 6393UDC     C970321   9.688   8.520  11.210  0.5977 -1.7021  0.2676
 6393UDC    C1070322   9.730   8.627  11.321  0.0032  0.4884 -0.9888
 6393UDC    C1170323   9.752   8.592  11.473 -0.2944  0.0869 -0.3577
 6394UDC     C170324   3.821   4.783   2.871  0.2586 -0.0790 -0.4236
 6394UDC     C270325   3.778   4.650   2.822 -0.7810 -0.6248 -0.2351
 6394UDC     C370326   3.649   4.625   2.750 -0.3383  0.4484  0.4076
 6394UDC     C470327   3.631   4.721   2.634  0.9317  0.0705 -0.8044
 6394UDC     C570328   3.720   4.686   2.514  1.6409  0.1098 -0.4694
 6394UDC     C670329   3.702   4.794   2.411  0.4223 -0.9722  0.0966
 6394UDC     C770330   3.603   4.781   2.291  0.1828  0.3211 -0.3387
 6394UDC     C870331   3.630   4.644   2.224 -0.5924 -0.0846  0.2059
 6394UDC     C970332   3.527   4.574   2.137  0.2780  0.0859 -0.9309
 6394UDC    C1070333   3.537   4.421   2.130 -0.2356 -0.8619  0.1021
 6394UDC    C1170334   3.408   4.375   2.063 -0.6983  0.1986 -0.3772
 6395UDC     C170335  19.752  17.117  18.456 -0.1133  0.0280  0.2341
 6395UDC     C270336  19.661  17.129  18.331 -0.2032  0.3521  0.7404
 6395UDC     C370337  19.640  16.988  18.258 -0.4664 -0.4701  0.1857
 6395UDC     C470338  19.525  17.027  18.159 -0.7730  0.1508 -0.8291
 6395UDC     C570339  19.551  17.169  18.105 -1.5007  0.6270  0.0968
 6395UDC     C670340  19.423  17.212  18.026 -0.3269 -0.1032  0.1748
 6395UDC     C770341  19.412  17.132  17.900  0.9870 -0.1656  0.4397
 6395UDC     C870342  19.340  17.189  17.776  0.0742 -0.1416 -0.4903
 6395UDC     C970343  19.192  17.170  17.812 -0.2875  0.2825 -0.7355
 6395UDC    C1070344  19.095  17.219  17.708 -0.0738 -1.3106 -0.6750
 6395UDC    C1170345  19.064  17.371  17.704  0.6949  0.3682 -0.4014
 6396UDC     C170346  19.716   2.832   1.308  1.2983  0.2072  0.2342
 6396UDC     C270347  19.861   2.868   1.334 -0.2785  0.3323 -0.7836
 6396UDC     C370348  19.950   2.757   1.272  0.0881  0.5614 -0.3177
 6396UDC     C470349  20.105   2.749   1.316 -0.7058 -0.1119  0.4468
 6396UDC     C570350  20.135   2.623   1.388  1.1870  0.4180  0.1349
 6396UDC     C670351  20.137   2.505   1.288 -0.7728  0.4479  0.6735
 6396UDC     C770352  20.221   2.386   1.339  1.0999  0.7199  0.1818
 6396UDC     C870353  20.144   2.312   1.459 -0.0276 -0.4172  0.4553
 6396UDC     C970354  20.255   2.213   1.508  0.5190  0.4377 -0.3121
 6396UDC    C1070355  20.387   2.288   1.534  0.6313  0.7702 -0.0159
 6396UDC    C1170356  20.481   2.223   1.634 -0.2512  0.7784 -0.4551
 6397UDC     C170357   7.871  11.054   3.638  0.5233 -1.4236 -0.1123
 6397UDC     C270358   7.860  10.902   3.664 -0.5208  0.0908  0.4152
 6397UDC     C370359   7.852  10.846   3.811  0.2590  0.3888  0.1905
 6397UDC     C470360   7.978  10.795   3.873  0.2486 -0.4781  0.1165
 6397UDC     C570361   7.948  10.706   3.996  0.4357  0.0988 -0.5469
 6397UDC     C670362   8.071  10.641   4.049 -0.2062  1.3778  0.7428
 6397UDC     C770363   8.158  10.733   4.141 -0.0349  0.6716 -0.9619
 6397UDC     C870364   8.268  10.651   4.195 -0.3402  0.8925  0.6903
 6397UDC     C970365   8.373  10.703   4.295  0.0887  1.2210  0.9303
 6397UDC    C1070366   8.492  10.786   4.248 -0.1894 -0.6092  0.5378
 6397UDC    C1170367   8.630  10.745   4.306 -0.0801  1.8905 -0.4875
 6398UDC     C170368   1.850   0.328   8.437 -0.7198  0.3741 -1.4516
 6398UDC     C270369   1.952   0.432   8.466  0.5282  0.4857 -0.1700
 6398UDC     C370370   1.938   0.516   8.596 -0.7342 -0.7116 -0.1583
 6398UDC     C470371   1.999   0.460   8.728  0.2549 -0.2856  0.2525
 6398UDC     C570372   2.079   0.570   8.806 -0.9860 -0.0465  0.6915
 6398UDC     C670373   2.106   0.506   8.943 -1.1169 -0.1422  0.3250
 6398UDC     C770374   1.987   0.426   8.982 -0.1921 -0.7756  0.6642
 6398UDC     C870375   1.996   0.359   9.118  0.0731  0.0177 -0.2196
 6398UDC     C970376   2.104   0.245   9.104 -0.1243  0.1115 -0.5360
 6398UDC    C1070377   2.098   0.159   9.229 -0.5866 -0.0478 -0.3818
 6398UDC    C1170378   2.220   0.057   9.206 -0.4915 -0.0507  0.2686
 6399UDC     C170379  14.789  16.046  15.797  0.2978 -0.0023 -0.2740
 6399UDC     C270380  14.672  16.116  15.872  0.1074  0.1406  0.2502
 6399UDC     C370381  14.543  16.149  15.792 -0.0151 -0.1720 -0.0697
 6399UDC     C470382  14.433  16.148  15.897  0.1300 -0.1337 -0.4214
 6399UDC     C570383  14.446  16.209  16.035 -0.0927  0.0731 -0.7369
 6399UDC     C670384  14.315  16.232  16.111 -0.0079  0.7970  0.0341
 6399UDC     C770385  14.358  16.246  16.258  0.0793  0.1979  0.8205
 6399UDC     C870386  14.409  16.389  16.241  0.5320  0.0862 -0.6756
 6399UDC     C970387  14.417  16.504  16.347  1.1587 -0.3750 -0.5120
 6399UDC    C1070388  14.457  16.636  16.283 -0.5628 -1.2909  0.0144
 6399UDC    C1170389  14.525  16.737  16.387 -0.0520  0.7710  1.3277
 6400UDC     C170390   8.012  15.761   7.381 -0.3668  0.0224 -0.6637
 6400UDC     C270391   7.944  15.765   7.243 -0.7041  1.3460 -0.2118
 6400UDC     C370392   8.051  15.819   7.142 -0.0743  0.0717  0.1366
 6400UDC     C470393   8.026  15.963   7.113 -1.2499 -0.0242  0.2770
 6400UDC     C570394   7.947  15.999   6.984  0.6189  0.0424  0.8230
 6400UDC     C670395   8.029  15.972   6.851  0.2803 -0.0443 -0.7073
 6400UDC     C770396   7.918  15.982   6.746  0.8988  0.2172  0.0459
 6400UDC     C870397   7.954  16.040   6.606 -0.4156 -0.9847 -0.1752
 6400UDC     C970398   7.836  16.085   6.513 -0.2769  0.9985 -0.4283
 6400UDC    C1070399   7.895  16.078   6.369  0.9129 -0.3887  0.2716
 6400UDC    C1170400   7.988  16.205   6.344  0.0352  0.1567 -0.6303
 6401UDC     C170401   8.580  11.900  17.842  0.2308 -0.2574 -0.2843
 6401UDC     C270402   8.669  11.979  17.938 -0.2235  0.0658  0.1892
 6401UDC     C370403   8.622  12.121  17.952  0.9480 -0.2459  0.8920
 6401UDC     C470404   8.706  12.234  17.880 -1.5738  1.0552 -0.2226
 6401UDC     C570405   8.648  12.375  17.888  0.5303  1.3039  0.6976
 6401UDC     C670406   8.492  12.388  17.872  0.5939 -0.1672  0.8499
 6401UDC     C770407   8.445  12.330  17.735  0.5617 -0.6548  0.5363
 6401UDC     C870408   8.292  12.311  17.736 -0.8165 -1.8537 -0.1441
 6401UDC     C970409   8.240  12.249  17.604 -0.2538 -1.1642 -0.3307
 6401UDC    C1070410   8.088  12.237  17.585  0.4079 -0.0916  0.5505
 6401UDC    C1170411   7.989  12.354  17.592 -0.8389  0.2830  0.0193
 6402UDC     C170412   1.766   2.885   2.021  1.0388  1.3639 -0.0045
 6402UDC     C270413   1.664   2.929   1.918  0.9124  0.0335  0.9511
 6402UDC     C370414   1.626   2.822   1.808  1.3831  0.4162  0.5892
 6402UDC     C470415   1.554   2.708   1.885  0.6560 -0.7371  0.4625
 6402UDC     C570416   1.409   2.732   1.934  0.9529 -0.3012 -0.8734
 6402UDC     C670417   1.366   2.610   2.016 -0.3624  0.5073  0.6217
 6402UDC     C770418   1.211   2.618   2.009  0.6055 -1.3546 -0.4714
 6402UDC     C870419   1.117   2.542   2.103 -0.2467 -1.4252 -0.4456
 6402UDC     C970420   1.070   2.549   2.250  0.6498 -1.0654 -0.2102
 6402UDC    C1070421   0.982   2.447   2.319  0.4081 -0.4038 -0.4311
 6402UDC    C1170422   0.939   2.513   2.458  0.6994  0.1626 -0.5724
 6403UDC     C170423  17.603   1.074  12.814 -0.6424 -0.1393  0.1921
 6403UDC     C270424  17.740   1.097  12.875 -0.2502 -0.3078 -0.2700
 6403UDC     C370425  17.804   1.230  12.828 -1.0479  0.3374 -0.3188
 6403UDC     C470426  17.915   1.267  12.933 -0.7364  0.0697  0.0070
 6403UDC     C570427  17.974   1.400  12.905 -0.6791 -0.5275 -0.6118
 6403UDC     C670428  18.034   1.419  12.769  0.9645  0.2261  0.3458
 6403UDC     C770429  18.018   1.563  12.714 -0.2032  0.0517 -1.0925
 6403UDC     C870430  18.062   1.549  12.568  0.9670 -0.3534  0.8088
 6403UDC     C970431  18.064   1.673  12.477  0.7570  0.3766  0.5566
 6403UDC    C1070432  18.051   1.807  12.552 -0.7965 -0.1293  0.4710
 6403UDC    C1170433  18.095   1.938  12.488 -0.3642 -0.9774  0.0511
 6404UDC     C170434   5.745  13.185   2.044  0.4475 -0.8342 -1.1051
 6404UDC     C270435   5.655  13.267   1.947 -0.5207 -0.6368 -0.9243
 6404UDC     C370436   5.610  13.205   1.815  0.4174  0.5522  0.2757
 6404UDC     C470437   5.471  13.233   1.763  0.2897 -0.2463 -0.3861
 6404UDC     C570438   5.405  13.372   1.767 -0.5470 -0.8284 -0.5242
 6404UDC     C670439   5.285  13.378   1.864 -0.8239 -0.4421  0.3509
 6404UDC     C770440   5.307  13.305   1.999  0.7706  0.1019  0.0628
 6404UDC     C870441   5.168  13.299   2.073 -0.4157  0.6625 -0.3301
 6404UDC     C970442   5.074  13.424   2.045 -0.1821  0.6433  0.9038
 6404UDC    C1070443   4.961  13.426   2.157 -0.2423 -0.7956  0.2242
 6404UDC    C1170444   4.883  13.299   2.162  0.7098  1.2933  0.1567
 6405UDC     C170445   1.269  11.846   1.177 -0.0610  0.6322  1.1681
 6405UDC     C270446   1.388  11.932   1.210 -0.0936 -0.1596  0.2823
 6405UDC     C370447   1.346  12.079   1.201 -0.3533 -0.0596  0.2176
 6405UDC     C470448   1.468  12.173   1.190 -0.0223 -0.2478 -0.6001
 6405UDC     C570449   1.424  12.305   1.126 -0.2057  0.2141  1.0895
 6405UDC     C670450   1.538  12.407   1.114 -0.7575 -0.8963 -0.2627
 6405UDC     C770451   1.499  12.544   1.053  0.3052  0.7632 -0.0195
 6405UDC     C870452   1.602  12.655   1.041 -0.0590  0.9461 -0.6889
 6405UDC     C970453   1.567  12.788   0.981 -0.2498  0.5910  0.2563
 6405UDC    C1070454   1.513  12.752   0.845 -0.5448  0.7417  0.1286
 6405UDC    C1170455   1.498  12.853   0.730  0.2105  0.0823 -0.4123
 6406UDC     C170456  13.573  17.146  12.147 -0.2260  0.4285  0.4600
 6406UDC     C270457  13.632  17.276  12.204  0.9167 -0.2662 -1.2155
 6406UDC     C370458  13.784  17.293  12.232  0.5919  0.4840  0.3565
 6406UDC     C470459  13.881  17.312  12.119 -0.9446  0.7682 -0.9072
 6406UDC     C570460  13.999  17.399  12.163 -0.0798 -0.9181  0.2429
 6406UDC     C670461  14.130  17.356  12.097 -0.5357  0.6162 -0.4096
 6406UDC     C770462  14.264  17.404  12.148  1.1573 -0.6484 -0.9975
 6406UDC     C870463  14.320  17.541  12.092 -0.1463 -0.2185 -0.7081
 6406UDC     C970464  14.252  17.603  11.969  1.4339  0.4742 -1.0000
 6406UDC    C1070465  14.310  17.733  11.923  0.1783 -0.2514 -0.2970
 6406UDC    C1170466  14.449  17.765  11.983  0.2914  0.2420  0.1041
 6407UDC     C170467  10.391  12.467   3.972  0.5090 -0.7206  0.0672
 6407UDC     C270468  10.343  12.606   4.019 -0.6446  0.3074 -0.7862
 6407UDC     C370469  10.315  12.627   4.171  0.6949 -0.0442  0.8888
 6407UDC     C470470  10.216  12.746   4.153  1.0596  1.3119  0.8110
 6407UDC     C570471  10.278  12.869   4.097  0.1756 -0.9285  0.8758
 6407UDC     C670472  10.184  12.989   4.103 -0.5047 -0.0118 -0.1475
 6407UDC     C770473  10.236  13.121   4.167  0.4436  0.8831 -0.0191
 6407UDC     C870474  10.275  13.112   4.317  0.6039 -0.4187  0.2665
 6407UDC     C970475  10.421  13.133   4.348 -0.5145 -0.3128 -0.5263
 6407UDC    C1070476  10.494  13.060   4.466 -1.1984 -0.6896 -0.5586
 6407UDC    C1170477  10.516  12.909   4.450 -0.2787 -0.9633  0.2003
 6408UDC     C170478  17.360   7.316  16.670  0.2304 -0.5580  0.6935
 6408UDC     C270479  17.443   7.272  16.796  0.5302  0.1391 -0.1644
 6408UDC     C370480  17.370   7.353  16.908  0.2196 -0.5322 -0.8878
 6408UDC     C470481  17.416   7.304  17.044 -0.3359  0.6435 -0.0679
 6408UDC     C570482  17.569   7.279  17.081  0.8702  0.2109 -0.2223
 6408UDC     C670483  17.584   7.178  17.203 -0.5352  0.0472  0.7331
 6408UDC     C770484  17.565   7.024  17.170 -0.3593  0.3441  0.0408
 6408UDC     C870485  17.570   6.930  17.292  0.7375 -0.0489 -0.4186
 6408UDC     C970486  17.590   6.792  17.233  0.6596  0.5741 -0.3358
 6408UDC    C1070487  17.480   6.729  17.145  0.5679  0.4545 -1.0870
 6408UDC    C1170488  17.348   6.690  17.228  0.3773  0.7876  0.0421
 6409UDC     C170489   7.747  14.513  14.295 -0.6764  0.5631 -0.0601
 6409UDC     C270490   7.711  14.433  14.166  0.0751  0.6849 -0.1393
 6409UDC     C370491   7.626  14.497  14.053  0.2829  0.5471 -0.6175
 6409UDC     C470492   7.687  14.617  13.977 -0.3408 -0.6514  0.3831
 6409UDC     C570493   7.814  14.597  13.897 -0.0983 -0.5065  0.3206
 6409UDC     C670494   7.896  14.722  13.863 -0.5794  0.1753  0.1171
 6409UDC     C770495   7.983  14.699  13.740 -0.2590  0.1622  0.7852
 6409UDC     C870496   8.016  14.842  13.692  0.8229 -1.1008  0.0424
 6409UDC     C970497   8.077  14.939  13.799 -1.1953  0.6953  0.8760
 6409UDC    C1070498   8.197  15.022  13.751  0.9981  0.6430  0.6480
 6409UDC    C1170499   8.206  15.172  13.783 -0.7555 -0.1223  1.1447
 6410UDC     C170500  13.717  11.417   3.080 -0.7121  0.3998 -0.0620
 6410UDC     C270501  13.567  11.413   3.084 -0.0139 -0.1615  0.6120
 6410UDC     C370502  13.495  11.468   3.209 -0.3293 -0.4466 -0.5115
 6410UDC     C470503  13.342  11.492   3.195  0.5965 -0.6363 -0.2036
 6410UDC     C570504  13.283  11.345   3.196 -0.5170 -0.1112 -0.5659
 6410UDC     C670505  13.142  11.306   3.190 -0.6810  0.4097  0.4567
 6410UDC     C770506  13.137  11.159   3.142 -0.4465 -0.5189 -0.0414
 6410UDC     C870507  13.000  11.096   3.148 -0.2831 -0.6277 -0.2537
 6410UDC     C970508  12.986  10.958   3.069 -0.7584 -0.1524  0.7819
 6410UDC    C1070509  12.838  10.921   3.083 -0.6345 -1.1123  0.7271
 6410UDC    C1170510  12.793  10.804   2.990  0.8809 -0.5379 -0.8726
 6411UDC     C170511   2.172  14.642  11.897 -1.4856 -0.5497 -0.5001
 6411UDC     C270512   2.237  14.556  11.781 -0.6468 -0.5595  0.1943
 6411UDC     C370513   2.218  14.405  11.790 -0.0747  0.5649  0.2320
 6411UDC     C470514   2.277  14.324  11.676  0.8486 -0.2019  0.8714
 6411UDC     C570515   2.188  14.290  11.560  0.9572  0.9206 -0.1774
 6411UDC     C670516   2.162  14.407  11.461 -0.2775  0.7465  0.4602
 6411UDC     C770517   2.100  14.378  11.323  0.4271 -0.0752 -0.0676
 6411UDC     C870518   1.983  14.480  11.305  0.4651  0.2265 -0.0714
 6411UDC     C970519   1.869  14.447  11.406  0.0639  0.1780  0.1116
 6411UDC    C1070520   1.746  14.508  11.331 -0.8263 -0.3035  0.1809
 6411UDC    C1170521   1.619  14.444  11.391  1.6943 -0.2051 -0.1831
 6412UDC     C170522   0.571   1.664   9.692 -0.3847  0.0721  1.3441
 6412UDC     C270523   0.464   1.770   9.694 -0.5067  0.8427 -0.3166
 6412UDC     C370524   0.348   1.768   9.594 -0.5392  0.6634  0.0140
 6412UDC     C470525   0.310   1.917   9.576 -0.2662  0.0539  0.3863
 6412UDC     C570526   0.226   2.000   9.668 -0.1652 -0.3349  0.3548
 6412UDC     C670527   0.239   2.145   9.612  0.5376  0.3559  0.1498
 6412UDC     C770528   0.151   2.164   9.483 -0.7357 -0.6295 -0.1025
 6412UDC     C870529   0.001   2.130   9.496  1.0215 -0.2762 -0.4890
 6412UDC     C970530  -0.085   2.177   9.382  1.0420  0.1962  0.8686
 6412UDC    C1070531  -0.077   2.324   9.340 -0.6594 -0.1214 -0.4426
 6412UDC    C1170532  -0.216   2.386   9.332 -0.1665 -0.5678 -0.2551
 6413UDC     C170533  15.169  11.645  18.424  0.2379  0.8433  0.1995
 6413UDC     C270534  15.318  11.604  18.451  0.2195  0.7602 -1.2171
 6413UDC     C370535  15.356  11.491  18.352 -0.0468  0.0377 -0.3846
 6413UDC     C470536  15.497  11.451  18.339  0.6449  0.5550 -0.6152
 6413UDC     C570537  15.486  11.338  18.240 -0.8168 -0.9067 -0.6321
 6413UDC     C670538  15.621  11.297  18.184  0.2751 -0.0600  0.4449
 6413UDC     C770539  15.619  11.168  18.099  0.1776  0.5795 -0.0973
 6413UDC     C870540  15.527  11.054  18.152 -0.9253 -0.6748 -0.5085
 6413UDC     C970541  15.495  10.949  18.053 -0.4130  0.9317  0.0813
 6413UDC    C1070542  15.351  10.962  17.982  0.1930  0.0606 -0.9590
 6413UDC    C1170543  15.312  10.824  17.928 -0.9251 -0.8339  0.3039
 6414UDC     C170544  12.552   7.906  16.124  0.6106 -1.3736 -0.9157
 6414UDC     C270545  12.441   7.854  16.025 -0.7584  0.0017 -0.6469
 6414UDC     C370546  12.463   7.879  15.879  0.6161 -0.5227  0.4870
 6414UDC     C470547  12.482   8.030  15.846  0.4037  0.4052  0.7341
 6414UDC     C570548  12.467   8.060  15.693  0.2011 -0.2786 -0.2803
 6414UDC     C670549  12.593   8.116  15.618  0.3459 -0.0444 -0.6044
 6414UDC     C770550  12.569   8.185  15.480  0.3331 -0.4348 -0.8487
 6414UDC     C870551  12.502   8.112  15.367 -0.1006 -0.1276  0.0681
 6414UDC     C970552  12.563   8.103  15.228  0.0996  0.2436  0.1600
 6414UDC    C1070553  12.671   8.000  15.193  0.9441  0.0592 -1.1710
 6414UDC    C1170554  12.735   8.058  15.072 -0.3112 -0.6795  0.0266
 6415UDC     C170555   2.283  10.831  12.774  0.1047  0.3061 -0.3159
 6415UDC     C270556   2.259  10.916  12.646  0.8348  0.8093 -0.3790
 6415UDC     C370557   2.208  11.052  12.670 -0.5420 -0.3643 -0.0713
 6415UDC     C470558   2.139  11.113  12.549  0.5393 -0.0979 -0.1585
 6415UDC     C570559   2.157  11.269  12.541 -0.0811  0.5748 -0.2084
 6415UDC     C670560   2.121  11.325  12.400  0.8244 -0.2511 -1.1711
 6415UDC     C770561   2.238  11.340  12.307 -0.3368  0.3260 -0.2782
 6415UDC     C870562   2.243  11.485  12.242  0.1322 -0.1678 -0.0628
 6415UDC     C970563   2.362  11.507  12.141 -0.6200  0.0789  0.6778
 6415UDC    C1070564   2.327  11.582  12.006  0.0514  0.1950 -0.4638
 6415UDC    C1170565   2.327  11.515  11.870 -0.0703 -0.4574  0.3634
 6416UDC     C170566  18.313  18.663  13.252 -0.8324  1.0439 -1.9743
 6416UDC     C270567  18.291  18.676  13.111  0.0958 -0.3961  0.1680
 6416UDC     C370568  18.170  18.762  13.067  0.6494 -0.2049 -0.2307
 6416UDC     C470569  18.177  18.801  12.923 -0.9474  0.7707 -0.0701
 6416UDC     C570570  18.309  18.875  12.874  0.6688 -1.1579 -0.3280
 6416UDC     C670571  18.326  18.905  12.722 -0.4949 -0.4525  0.1997
 6416UDC     C770572  18.399  19.033  12.678 -0.4715 -1.0507  0.2678
 6416UDC     C870573  18.540  19.039  12.747  0.3024  0.0755  1.0992
 6416UDC     C970574  18.557  19.161  12.826 -0.3388  0.0558 -1.8718
 6416UDC    C1070575  18.684  19.182  12.908 -0.4936  1.0796 -0.6944
 6416UDC    C1170576  18.768  19.298  12.864  0.1217  0.6877 -0.6419
 6417UDC     C170577   6.888  12.297  12.481 -0.4292  0.3339  1.2254
 6417UDC     C270578   6.943  12.179  12.407  0.8233 -0.1619  0.7743
 6417UDC     C370579   6.883  12.140  12.269  0.3562 -0.2864 -0.0893
 6417UDC     C470580   6.803  12.009  12.269 -0.1291 -0.0745 -0.1346
 6417UDC     C570581   6.737  11.972  12.138  0.3162  0.3301 -0.0783
 6417UDC     C670582   6.601  12.042  12.110  0.7955 -0.0151  0.7861
 6417UDC     C770583   6.526  12.001  11.980 -0.4065 -0.1658 -0.3852
 6417UDC     C870584   6.403  11.912  11.998  0.2074 -0.9686 -0.2182
 6417UDC     C970585   6.277  11.954  11.931  1.0301 -0.2762  0.2002
 6417UDC    C1070586   6.146  11.892  11.995 -0.3379 -1.1421  0.4998
 6417UDC    C1170587   6.028  11.856  11.892  0.0479  0.4904  0.7143
 6418UDC     C170588   1.751   3.518   9.045  0.4540  0.2886 -0.0324
 6418UDC     C270589   1.603   3.482   9.028 -0.0861 -1.0218  0.0778
 6418UDC     C370590   1.588   3.349   9.094 -0.3822  1.0587 -0.1765
 6418UDC     C470591   1.667   3.356   9.225 -0.2341 -0.8629 -0.9879
 6418UDC     C570592   1.599   3.357   9.359  0.3513  0.6076  0.9235
 6418UDC     C670593   1.670   3.328   9.487  0.8999 -0.2485 -1.0344
 6418UDC     C770594   1.775   3.443   9.523  0.3065 -0.9807  0.3888
 6418UDC     C870595   1.847   3.462   9.658 -0.1102 -1.0792  0.1609
 6418UDC     C970596   1.992   3.506   9.647 -1.2985 -0.2561 -0.3502
 6418UDC    C1070597   2.036   3.588   9.767  0.2819  0.4236 -0.0896
 6418UDC    C1170598   1.999   3.530   9.908  0.0854  0.6737  0.8527
 6419UDC     C170599   4.925  11.400  19.671 -1.4651  0.2346  0.8332
 6419UDC     C270600   4.980  11.259  19.686 -1.2404 -0.0071 -0.4480
 6419UDC     C370601   4.904  11.156  19.607  0.3092 -0.7076  0.9060
 6419UDC     C470602   4.952  11.010  19.626 -0.4672 -0.8677  0.4978
 6419UDC     C570603   4.952  10.946  19.768  1.5057 -0.6236  1.3306
 6419UDC     C670604   5.012  10.807  19.794 -0.0511 -0.2718 -0.0984
 6419UDC     C770605   4.938  10.739  19.909  0.4530 -0.3015 -0.2697
 6419UDC     C870606   4.911  10.592  19.869 -0.2333 -0.6991  0.4955
 6419UDC     C970607   4.789  10.539  19.934  0.6272 -0.0486 -0.3772
 6419UDC    C1070608   4.805  10.504  20.083  0.7020  0.2051 -1.0461
 6419UDC    C1170609   4.921  10.410  20.122 -0.2440 -0.1122 -0.7292
 6420UDC     C170610  18.643   3.758  19.036 -0.0046 -0.1311  0.3723
 6420UDC     C270611  18.521   3.833  19.074 -0.4434 -0.2679  0.6931
 6420UDC     C370612  18.515   3.868  19.227  1.0047  0.4079 -0.1107
 6420UDC     C470613  18.400   3.942  19.292  0.6428 -0.3406 -0.8474
 6420UDC     C570614  18.411   4.013  19.429  0.7872 -0.2603 -0.4637
 6420UDC     C670615  18.518   4.131  19.423  0.9788  0.4243  0.4012
 6420UDC     C770616  18.633   4.108  19.522  0.6726  0.0470  0.8944
 6420UDC     C870617  18.748   4.207  19.516 -0.2432  0.9455  0.9424
 6420UDC     C970618  18.855   4.155  19.614 -0.5997  0.3435  0.3750
 6420UDC    C1070619  18.970   4.256  19.617  0.2255  0.3362 -0.1369
 6420UDC    C1170620  18.935   4.401  19.659 -0.8076  1.2551  0.7953
 6421UDC     C170621   3.708  11.659   3.769 -0.7471 -0.3363 -0.1480
 6421UDC     C270622   3.699  11.510   3.762  0.0158  0.1273 -0.4869
 6421UDC     C370623   3.731  11.433   3.892 -0.4599 -0.6696 -0.7381
 6421UDC     C470624   3.828  11.506   3.986  0.4073 -0.5596 -0.2072
 6421UDC     C570625   3.787  11.535   4.133 -0.0153  0.3857 -0.1816
 6421UDC     C670626   3.776  11.414   4.228 -0.2320 -0.0377 -0.3409
 6421UDC     C770627   3.681  11.433   4.346 -0.4471  0.4287  0.6522
 6421UDC     C870628   3.558  11.524   4.343  0.5195  0.0131  0.3734
 6421UDC     C970629   3.462  11.518   4.460  0.1751  0.7910 -0.6512
 6421UDC    C1070630   3.318  11.508   4.420  0.0982 -0.8692 -0.3235
 6421UDC    C1170631   3.229  11.529   4.547 -0.8922  0.8210 -0.3399
 6422UDC     C170632   4.996   9.333  12.479  0.7060  0.6826 -0.4382
 6422UDC     C270633   4.904   9.387  12.588  0.3955  0.6753 -0.9625
 6422UDC     C370634   4.915   9.354  12.737 -0.3362 -0.6166  0.6464
 6422UDC     C470635   4.887   9.476  12.819  0.1902  0.1891  0.5628
 6422UDC     C570636   4.866   9.444  12.958 -0.6366 -0.2917  0.4242
 6422UDC     C670637   4.793   9.559  13.035  0.6941  0.2628 -0.1027
 6422UDC     C770638   4.809   9.698  12.973 -0.5090 -0.2140 -0.6052
 6422UDC     C870639   4.722   9.787  13.058  0.8436  0.0589  0.0032
 6422UDC     C970640   4.587   9.714  13.057 -0.3671 -1.4528  1.0989
 6422UDC    C1070641   4.478   9.767  13.155  0.1441  0.3267 -0.6784
 6422UDC    C1170642   4.499   9.714  13.297 -1.1998 -0.1206  0.2929
 6423UDC     C170643   0.523   5.652   1.774 -0.1018 -0.9714 -0.4596
 6423UDC     C270644   0.433   5.648   1.905 -1.0739 -0.7721  1.2036
 6423UDC     C370645   0.325   5.748   1.915  0.1893  0.2074 -0.6234
 6423UDC     C470646   0.236   5.707   2.031  0.1858  0.7706 -0.5723
 6423UDC     C570647   0.128   5.811   2.061 -0.8937  1.1883  0.0995
 6423UDC     C670648   0.052   5.793   2.194 -0.2398 -0.2797  0.9005
 6423UDC     C770649  -0.052   5.907   2.198 -0.1983  1.0544 -1.4369
 6423UDC     C870650  -0.168   5.886   2.104  0.1294 -0.4277 -0.5081
 6423UDC     C970651  -0.312   5.917   2.148  0.4346  0.4787  0.1267
 6423UDC    C1070652  -0.362   5.858   2.273 -0.2012 -0.6823 -0.0927
 6423UDC    C1170653  -0.517   5.882   2.248 -0.6531  0.6276  0.4833
 6424UDC     C170654   9.205   4.831  12.861  0.1451 -0.9115  0.3117
 6424UDC     C270655   9.239   4.982  12.901 -0.1572 -0.0724 -0.6282
 6424UDC     C370656   9.213   5.084  12.790 -0.3126 -0.1099  0.2601
 6424UDC     C470657   9.296   5.214  12.799  0.4952  0.3597  0.4248
 6424UDC     C570658   9.255   5.291  12.667 -0.2391 -0.1530  0.7320
 6424UDC     C670659   9.357   5.402  12.643  0.6904  0.6580  0.0668
 6424UDC     C770660   9.494   5.339  12.608 -0.2246  0.0578 -0.5145
 6424UDC     C870661   9.494   5.282  12.464 -0.8452  0.5449  0.2467
 6424UDC     C970662   9.608   5.188  12.424  0.3927  0.5010  0.5436
 6424UDC    C1070663   9.645   5.165  12.273 -0.2116  0.2337 -0.8604
 6424UDC    C1170664   9.541   5.093  12.180 -0.3528 -0.0685 -0.2354
 6425UDC     C170665  16.642  11.121  18.379 -0.2679  0.6330  0.1733
 6425UDC     C270666  16.762  11.210  18.391 -0.8241 -0.3412  0.4005
 6425UDC     C370667  16.891  11.120  18.421 -1.4156  0.6820  0.0228
 6425UDC     C470668  17.018  11.202  18.437 -0.0746 -0.0804  0.1110
 6425UDC     C570669  17.152  11.136  18.469 -0.1190 -0.4114 -0.2206
 6425UDC     C670670  17.181  11.081  18.614  0.1678  1.2040 -0.0585
 6425UDC     C770671  17.328  11.043  18.636 -0.2582 -1.5100 -0.6373
 6425UDC     C870672  17.367  11.002  18.782 -0.0574 -0.0321  0.9526
 6425UDC     C970673  17.499  10.922  18.778 -1.3846 -0.0010 -1.6165
 6425UDC    C1070674  17.518  10.837  18.914  0.4808  0.0487  0.7898
 6425UDC    C1170675  17.656  10.777  18.940 -0.5047 -0.5295 -0.2307
 6426UDC     C170676   3.054  16.210  14.575 -0.6169 -0.6630 -0.8765
 6426UDC     C270677   3.107  16.116  14.684 -0.8540  0.8444 -0.0631
 6426UDC     C370678   3.262  16.122  14.685 -0.5855  1.3394  0.1164
 6426UDC     C470679   3.340  16.092  14.550 -0.2146 -0.5504 -0.4567
 6426UDC     C570680   3.480  16.143  14.546  0.8298 -0.5546  0.2238
 6426UDC     C670681   3.548  16.137  14.412  0.2082 -0.4840  0.0892
 6426UDC     C770682   3.695  16.171  14.431 -0.5010  0.9965  0.4380
 6426UDC     C870683   3.752  16.230  14.302  0.4684 -0.1810  0.1145
 6426UDC     C970684   3.732  16.133  14.178 -0.6200 -0.5430 -0.9282
 6426UDC    C1070685   3.759  16.217  14.051  0.6580 -1.0440  0.4146
 6426UDC    C1170686   3.736  16.132  13.929  0.2110 -0.6998 -0.3897
 6427UDC     C170687   7.816   1.156  13.884 -0.6766  0.2569 -0.4211
 6427UDC     C270688   7.846   1.171  14.033  0.6477 -0.2835  0.6913
 6427UDC     C370689   7.720   1.156  14.130 -0.4215 -1.1520  0.0800
 6427UDC     C470690   7.668   1.014  14.157  0.0203 -0.6513  0.6902
 6427UDC     C570691   7.550   1.003  14.255  0.1569  0.5315  0.3716
 6427UDC     C670692   7.575   1.065  14.392  0.3582 -0.0467 -0.2733
 6427UDC     C770693   7.458   1.093  14.484  0.8429  0.8982  0.3935
 6427UDC     C870694   7.482   1.117  14.635  0.1807 -0.9740  0.7131
 6427UDC     C970695   7.629   1.127  14.661  0.8090  0.9413  0.8221
 6427UDC    C1070696   7.672   1.277  14.656 -0.5781 -0.6108  0.0519
 6427UDC    C1170697   7.743   1.322  14.783  0.1546 -0.7358 -0.8469
 6428UDC     C170698  17.404  10.671  12.644  0.2263  1.1212  0.4778
 6428UDC     C270699  17.446  10.527  12.614  0.3757  0.1219  0.5146
 6428UDC     C370700  17.566  10.501  12.525 -0.0360  0.0019  0.2665
 6428UDC     C470701  17.698  10.531  12.602  0.4757 -0.7284 -0.1331
 6428UDC     C570702  17.824  10.503  12.524  0.1307  0.2839 -0.5200
 6428UDC     C670703  17.833  10.353  12.530  0.1769  0.0346 -1.1953
 6428UDC     C770704  17.952  10.285  12.477 -0.5794 -0.2229  0.3203
 6428UDC     C870705  17.913  10.193  12.357  0.0289  0.5625  0.9253
 6428UDC     C970706  17.860  10.271  12.231  0.4400 -0.0269  0.5932
 6428UDC    C1070707  17.906  10.207  12.098 -0.0673 -0.5600  0.9152
 6428UDC    C1170708  17.822  10.086  12.037  1.4115  0.3260 -0.2288
 6429UDC     C170709   7.858  13.055   8.807 -0.3367 -0.6763  0.2749
 6429UDC     C270710   7.824  13.125   8.936 -1.4006 -0.7489 -0.6471
 6429UDC     C370711   7.846  13.280   8.952  0.9867 -0.0850  0.5623
 6429UDC     C470712   7.804  13.335   9.090  1.0357  0.2648  0.1123
 6429UDC     C570713   7.913  13.302   9.201  0.0036 -0.5822  0.1029
 6429UDC     C670714   7.881  13.308   9.356  0.7975  0.7761  0.2466
 6429UDC     C770715   7.780  13.200   9.389  0.3921  0.6470 -0.2866
 6429UDC     C870716   7.848  13.058   9.374  0.1655 -0.3234  0.3961
 6429UDC     C970717   7.887  13.004   9.515 -0.0649 -0.0652 -0.3262
 6429UDC    C1070718   7.951  12.866   9.524 -0.0845 -0.3354  0.3856
 6429UDC    C1170719   8.005  12.823   9.658 -0.2094 -0.2482 -1.1235
 6430UDC     C170720   8.786  14.889  17.822 -0.3143 -0.3136 -0.0528
 6430UDC     C270721   8.725  14.794  17.923  0.2064  0.2582  0.6380
 6430UDC     C370722   8.649  14.672  17.868 -0.2983  0.6922 -0.1556
 6430UDC     C470723   8.620  14.561  17.966 -1.1749  0.2600 -0.8996
 6430UDC     C570724   8.702  14.562  18.097 -0.3606  0.4010 -0.2380
 6430UDC     C670725   8.665  14.479  18.221 -0.2712  0.5742  0.3767
 6430UDC     C770726   8.787  14.494  18.309  0.4211 -0.1989 -0.3164
 6430UDC     C870727   8.894  14.395  18.277  0.1793  1.3590 -0.7206
 6430UDC     C970728   9.038  14.417  18.303 -0.4897 -0.1000 -0.3135
 6430UDC    C1070729   9.113  14.280  18.275  0.4149 -0.3023 -0.0853
 6430UDC    C1170730   9.097  14.247  18.126  0.4874 -0.0983  0.2083
 6431UDC     C170731  17.416   1.906  12.500 -0.0769  0.2946  0.1548
 6431UDC     C270732  17.322   1.938  12.385 -0.4730  0.3736  0.2999
 6431UDC     C370733  17.262   1.812  12.313  1.1418  0.1861 -0.7278
 6431UDC     C470734  17.164   1.850  12.204 -0.1195 -0.1412 -0.1145
 6431UDC     C570735  17.019   1.886  12.265 -0.6491 -0.8701  0.3352
 6431UDC     C670736  16.926   1.927  12.150  0.9844  0.4675  0.2287
 6431UDC     C770737  16.788   1.962  12.195 -0.3737 -0.4672  1.4672
 6431UDC     C870738  16.695   1.966  12.073  0.9620  0.9290  0.2176
 6431UDC     C970739  16.677   2.099  12.008  0.5387  0.3368 -0.1844
 6431UDC    C1070740  16.560   2.073  11.906 -0.1429 -0.8302 -0.1522
 6431UDC    C1170741  16.509   2.178  11.812 -0.1196 -0.2818  1.2986
 6432UDC     C170742   9.738  11.404   3.796 -1.1143  0.1366  0.2813
 6432UDC     C270743   9.708  11.462   3.933  0.4952  0.4988 -0.0170
 6432UDC     C370744   9.808  11.434   4.049  0.7946  0.4442  0.8776
 6432UDC     C470745   9.783  11.503   4.189 -0.0623  0.5704 -0.0222
 6432UDC     C570746   9.813  11.423   4.319  1.1433  0.6281 -0.6585
 6432UDC     C670747   9.972  11.393   4.340  0.3753 -1.5397  0.8334
 6432UDC     C770748  10.067  11.511   4.316 -0.7284 -0.4628  0.0994
 6432UDC     C870749  10.206  11.433   4.313  0.2236 -0.5546 -1.0531
 6432UDC     C970750  10.264  11.402   4.453 -0.5514 -0.0378 -0.4025
 6432UDC    C1070751  10.212  11.287   4.545 -0.6412  0.3598  1.5787
 6432UDC    C1170752  10.301  11.288   4.671  0.3613 -0.6986  0.0388
 6433UDC     C170753  11.783   5.250   8.511 -0.6717 -0.6666 -1.0381
 6433UDC     C270754  11.777   5.257   8.360  0.3226 -0.4245 -0.3577
 6433UDC     C370755  11.635   5.285   8.304 -0.8436  0.8905  0.4790
 6433UDC     C470756  11.600   5.430   8.343 -0.5985  0.2515  0.0664
 6433UDC     C570757  11.456   5.461   8.315  0.0630 -0.2199 -0.2594
 6433UDC     C670758  11.411   5.600   8.362  0.3836 -0.2675  0.5014
 6433UDC     C770759  11.311   5.675   8.278 -0.8187 -0.1288  1.2315
 6433UDC     C870760  11.278   5.819   8.322  0.1723 -0.4872 -0.8314
 6433UDC     C970761  11.159   5.848   8.412 -0.6671 -0.2911 -0.0115
 6433UDC    C1070762  11.092   5.984   8.383 -0.2351 -0.0413 -1.1161
 6433UDC    C1170763  10.999   6.025   8.496  0.8327 -1.4878 -0.2923
 6434UDC     C170764   3.388   2.582   3.428  1.0110  0.6233 -0.0462
 6434UDC     C270765   3.391   2.510   3.558  0.3181 -0.2585  0.1443
 6434UDC     C370766   3.439   2.574   3.688 -0.1630  0.2512 -0.5267
 6434UDC     C470767   3.498   2.497   3.816  0.6987 -0.3591  0.6899
 6434UDC     C570768   3.391   2.410   3.895  0.6391  0.1832 -0.4452
 6434UDC     C670769   3.450   2.296   3.983 -0.2460 -0.1226  0.7849
 6434UDC     C770770   3.529   2.337   4.102 -0.1515  1.0680  0.4595
 6434UDC     C870771   3.437   2.389   4.221  0.7064  0.4467 -0.2024
 6434UDC     C970772   3.515   2.476   4.320 -1.5578  0.3692 -0.0642
 6434UDC    C1070773   3.593   2.589   4.255 -0.1255 -0.3883  1.1070
 6434UDC    C1170774   3.650   2.701   4.340  0.0221 -0.3160 -0.3197
 6435UDC     C170775   2.652   5.925  10.713  0.0270 -0.1204 -0.5732
 6435UDC     C270776   2.788   5.948  10.772  0.3852 -0.3430  0.2753
 6435UDC     C370777   2.799   5.972  10.924  0.1783 -0.3369  0.2454
 6435UDC     C470778   2.832   5.853  11.015 -0.0802  0.1371  0.7431
 6435UDC     C570779   2.981   5.831  11.044 -0.3978 -0.2075  0.0320
 6435UDC     C670780   3.008   5.700  11.117  0.4317  0.1667  0.4790
 6435UDC     C770781   3.123   5.699  11.210 -0.3271  0.0602  0.9872
 6435UDC     C870782   3.140   5.561  11.276 -0.3420 -1.2366  1.3390
 6435UDC     C970783   3.027   5.528  11.370 -1.1668  0.8959  0.1497
 6435UDC    C1070784   3.058   5.589  11.501  0.8771  0.3379  0.4903
 6435UDC    C1170785   2.976   5.532  11.617 -0.1886 -1.2249  0.0296
 6436UDC     C170786  15.217   8.848  19.300  1.0459  0.4116  0.0204
 6436UDC     C270787  15.132   8.970  19.361 -0.4207 -0.5761 -0.2934
 6436UDC     C370788  14.982   8.950  19.377 -0.1128  0.4224 -0.3370
 6436UDC     C470789  14.938   8.886  19.513 -0.2685  0.4588 -0.2089
 6436UDC     C570790  14.963   8.997  19.614 -0.2453  1.4386 -0.9909
 6436UDC     C670791  14.899   9.137  19.598 -0.1138  0.3972  0.9933
 6436UDC     C770792  14.940   9.219  19.718  0.2980  0.4751 -0.2206
 6436UDC     C870793  14.927   9.148  19.854 -0.2967 -0.1385 -0.1220
 6436UDC     C970794  15.037   9.191  19.958 -0.9558  1.0495  0.2915
 6436UDC    C1070795  15.185   9.144  19.938 -0.4888 -0.1216  0.6289
 6436UDC    C1170796  15.203   8.989  19.940 -0.2079 -0.5104  0.1321
 6437UDC     C170797   7.579  17.090  14.738 -0.3158  0.0561 -0.4746
 6437UDC     C270798   7.652  16.998  14.641 -0.6783 -0.4239  0.8569
 6437UDC     C370799   7.599  17.027  14.499 -0.2082 -0.6828  0.5680
 6437UDC     C470800   7.676  17.146  14.437  0.1923 -0.9870  0.9897
 6437UDC     C570801   7.829  17.120  14.423 -0.1403 -0.0085  0.6662
 6437UDC     C670802   7.882  17.184  14.293  0.1241 -0.0495  0.2447
 6437UDC     C770803   7.909  17.082  14.180  0.7585 -0.1745 -0.5242
 6437UDC     C870804   7.991  16.967  14.250 -0.0625  0.0373  0.6237
 6437UDC     C970805   7.990  16.857  14.143 -0.5624  1.0448  1.3659
 6437UDC    C1070806   8.066  16.728  14.183  0.8384  0.1869 -0.7802
 6437UDC    C1170807   8.142  16.648  14.068 -1.0025  0.0898 -1.0041
 6438UDC     C170808   2.993   6.966  12.667  0.2299 -0.6927  0.3105
 6438UDC     C270809   2.907   7.010  12.545  0.0133  1.2616  0.4799
 6438UDC     C370810   2.799   6.906  12.498  0.2603  1.0547  0.1961
 6438UDC     C470811   2.672   6.967  12.426 -0.2553 -0.1493  0.6155
 6438UDC     C570812   2.662   6.888  12.289  0.3210  0.1881 -0.6802
 6438UDC     C670813   2.649   6.741  12.321 -0.7215  0.9904  0.3861
 6438UDC     C770814   2.596   6.646  12.215  0.2704 -0.2034  0.1166
 6438UDC     C870815   2.523   6.744  12.119  0.4122 -0.7254  0.1529
 6438UDC     C970816   2.534   6.691  11.977  0.1270  0.5614 -0.7480
 6438UDC    C1070817   2.540   6.777  11.855 -0.1762 -0.3647 -0.0510
 6438UDC    C1170818   2.401   6.846  11.834 -0.7261  0.0504 -0.1470
 6439UDC     C170819  15.741   6.931   6.137  0.3252 -0.2320 -0.6456
 6439UDC     C270820  15.836   7.048   6.158 -0.8235 -0.2180  0.4113
 6439UDC     C370821  15.764   7.142   6.244 -1.4146 -0.5614  0.4775
 6439UDC     C470822  15.849   7.264   6.292  0.4041 -0.9870  0.2659
 6439UDC     C570823  15.777   7.399   6.317 -0.7038  0.1717  0.1909
 6439UDC     C670824  15.888   7.511   6.296 -0.3134 -0.8179  0.3752
 6439UDC     C770825  15.868   7.631   6.385  0.5976 -0.1577 -0.9289
 6439UDC     C870826  15.986   7.724   6.388 -0.0311 -0.0718 -0.2646
 6439UDC     C970827  15.932   7.839   6.467  0.3811 -1.0166  0.6635
 6439UDC    C1070828  15.855   7.803   6.590 -0.4809  0.0542 -0.3412
 6439UDC    C1170829  15.813   7.921   6.683 -0.8170  0.1990  0.4406
 6440UDC     C170830   7.765   3.484   6.792  0.0419  0.3549  0.6342
 6440UDC     C270831   7.622   3.549   6.831  0.0758  0.2812  0.7073
 6440UDC     C370832   7.582   3.658   6.728 -0.0577 -0.0239 -0.0499
 6440UDC     C470833   7.452   3.734   6.741 -0.4681 -0.5538  0.6733
 6440UDC     C570834   7.454   3.833   6.865  0.0570  0.5503  0.1491
 6440UDC     C670835   7.331   3.905   6.896  0.2005 -1.0079 -0.4240
 6440UDC     C770836   7.274   4.003   6.791  0.9367 -0.4359  0.7643
 6440UDC     C870837   7.208   4.126   6.840  1.0823 -0.4994 -1.0288
 6440UDC     C970838   7.178   4.240   6.747  0.6699 -0.9858 -0.8766
 6440UDC    C1070839   7.098   4.366   6.803 -0.2747  0.1104 -0.3371
 6440UDC    C1170840   7.093   4.500   6.722  0.3805 -0.3733 -0.2885
 6441UDC     C170841   2.866  14.638   9.759 -0.8822 -0.0711 -0.0648
 6441UDC     C270842   2.963  14.696   9.862 -0.1189 -1.7643  0.6046
 6441UDC     C370843   3.092  14.627   9.907  0.0542 -0.4390 -1.1664
 6441UDC     C470844   3.172  14.567   9.790  0.0712  0.1959  0.3304
 6441UDC     C570845   3.248  14.653   9.689 -0.6002 -0.0733 -1.1820
 6441UDC     C670846   3.210  14.629   9.544 -0.1605 -0.4990 -0.2487
 6441UDC     C770847   3.225  14.474   9.535 -0.7018  0.8046 -0.3319
 6441UDC     C870848   3.149  14.401   9.430 -1.0723  1.1299 -0.7874
 6441UDC     C970849   2.998  14.420   9.468 -0.6235 -0.6170  0.5713
 6441UDC    C1070850   2.931  14.284   9.457  0.3421 -1.4810  1.1547
 6441UDC    C1170851   2.927  14.220   9.319 -0.8847  0.3632  0.1787
 6442UDC     C170852   0.543  17.966   7.764 -0.0347 -0.4471  0.7034
 6442UDC     C270853   0.499  17.877   7.646 -0.7425  0.0762 -0.8549
 6442UDC     C370854   0.606  17.781   7.592  0.6150  0.7031 -0.1790
 6442UDC     C470855   0.561  17.691   7.478  0.6865  0.1863  0.9716
 6442UDC     C570856   0.679  17.627   7.412  0.2803 -0.2295  0.0779
 6442UDC     C670857   0.795  17.710   7.353  0.6181 -1.0042 -0.8976
 6442UDC     C770858   0.924  17.630   7.363 -0.0393 -0.5578  0.6085
 6442UDC     C870859   1.009  17.643   7.491 -0.3888  0.6046  0.1605
 6442UDC     C970860   0.983  17.515   7.577 -0.4720 -0.7682  0.0333
 6442UDC    C1070861   1.066  17.509   7.711  1.2213  0.3158  0.3840
 6442UDC    C1170862   1.220  17.509   7.718 -0.2678 -0.1435 -0.8529
 6443UDC     C170863   7.283  13.303  13.509  0.3973  0.3122  0.7786
 6443UDC     C270864   7.248  13.453  13.491  0.5027 -0.1534 -0.6359
 6443UDC     C370865   7.236  13.533  13.356  0.2013  0.2147 -0.0970
 6443UDC     C470866   7.171  13.673  13.359 -0.0935  0.1802  0.7946
 6443UDC     C570867   7.075  13.723  13.248  0.1927 -0.2509  1.0542
 6443UDC     C670868   7.114  13.685  13.107 -0.6675  0.4400 -0.9305
 6443UDC     C770869   7.001  13.697  13.006  0.5769  0.5540  0.6778
 6443UDC     C870870   7.038  13.714  12.857  0.3143 -0.0612  1.1253
 6443UDC     C970871   6.910  13.722  12.772 -0.2206  1.0758  0.0288
 6443UDC    C1070872   6.917  13.694  12.622 -0.7260  1.2387  0.0519
 6443UDC    C1170873   6.903  13.544  12.594 -0.5300 -0.0540  0.9666
 6444UDC     C170874   6.448   7.898   3.881 -1.0611 -0.5962  0.3362
 6444UDC     C270875   6.554   7.800   3.934  1.5862 -0.3140 -0.9368
 6444UDC     C370876   6.509   7.755   4.075 -0.2826 -0.2997 -0.3487
 6444UDC     C470877   6.368   7.798   4.125  0.2054  0.3782 -0.8698
 6444UDC     C570878   6.351   7.745   4.264  0.5577  0.3726 -1.3003
 6444UDC     C670879   6.229   7.819   4.310  0.3038 -0.1366  0.4464
 6444UDC     C770880   6.222   7.764   4.451  0.9779  0.4577 -0.7602
 6444UDC     C870881   6.099   7.747   4.540  0.4822  0.2894 -0.1276
 6444UDC     C970882   6.122   7.742   4.691 -0.0892  0.2596  0.0311
 6444UDC    C1070883   6.255   7.700   4.745 -0.6794 -0.7834 -1.7072
 6444UDC    C1170884   6.339   7.812   4.822 -0.1178  1.1132 -0.2397
 6445UDC     C170885  18.636   1.142  12.824  0.9796  0.5218  1.0350
 6445UDC     C270886  18.744   1.097  12.920  0.0117  0.8383 -0.4873
 6445UDC     C370887  18.889   1.086  12.862  0.8212  0.0488 -0.8714
 6445UDC     C470888  18.977   1.047  12.981 -0.9263  0.4006 -0.8307
 6445UDC     C570889  18.956   0.904  13.032 -0.1417 -0.4793  0.8325
 6445UDC     C670890  19.086   0.821  13.020 -0.6385  0.3708 -0.6595
 6445UDC     C770891  19.184   0.810  13.140 -0.0149  0.8579 -0.2342
 6445UDC     C870892  19.302   0.725  13.128 -0.2283  0.2987  0.4643
 6445UDC     C970893  19.393   0.723  13.253 -0.5365  0.4382  1.0678
 6445UDC    C1070894  19.523   0.638  13.220  0.0495  0.0111 -0.2988
 6445UDC    C1170895  19.503   0.501  13.277  0.3047  0.2250  0.7498
 6446UDC     C170896   2.284   8.919   1.919 -0.4725  0.1318 -0.1396
 6446UDC     C270897   2.329   8.774   1.933 -0.0769  0.2357 -0.2777
 6446UDC     C370898   2.437   8.723   1.842 -0.4479  0.0099  0.2944
 6446UDC     C470899   2.389   8.627   1.734 -0.6672 -0.5049 -1.0652
 6446UDC     C570900   2.483   8.598   1.621 -1.1111  1.2042  0.4555
 6446UDC     C670901   2.644   8.598   1.623 -0.1339  0.1172 -0.4293
 6446UDC     C770902   2.711   8.573   1.485  0.3281  1.1404 -0.1104
 6446UDC     C870903   2.862   8.618   1.500 -0.2288  1.0722 -0.2107
 6446UDC     C970904   2.940   8.526   1.601 -0.2994  0.0719 -0.8098
 6446UDC    C1070905   3.078   8.578   1.640  0.7362  0.3724 -0.4284
 6446UDC    C1170906   3.134   8.526   1.766  0.0898 -0.0377 -0.2315
 6447UDC     C170907   0.591   1.563   4.513 -0.6679 -0.1945 -0.5427
 6447UDC     C270908   0.440   1.552   4.553 -0.2424 -0.1422  1.0959
 6447UDC     C370909   0.377   1.686   4.601 -0.1380 -1.3312  0.5423
 6447UDC     C470910   0.225   1.695   4.622  0.4277 -0.5844 -1.0724
 6447UDC     C570911   0.163   1.719   4.486  0.5250 -0.6627 -0.0277
 6447UDC     C670912   0.023   1.783   4.512 -1.0769  0.4743 -0.6656
 6447UDC     C770913  -0.058   1.759   4.389 -1.4620  0.1824  0.2306
 6447UDC     C870914  -0.203   1.793   4.400  1.3916 -0.6749 -1.0060
 6447UDC     C970915  -0.288   1.701   4.490 -0.2673 -0.4061  0.4271
 6447UDC    C1070916  -0.431   1.769   4.500 -0.6154 -0.1871 -0.1724
 6447UDC    C1170917  -0.515   1.749   4.372 -0.0451 -0.0749 -0.7305
 6448UDC     C170918  16.152  10.521   9.158  0.3880  0.5318 -0.8619
 6448UDC     C270919  16.051  10.457   9.063 -0.7825 -0.5417 -0.2184
 6448UDC     C370920  15.916  10.491   9.127 -0.0959  0.4022  0.4275
 6448UDC     C470921  15.913  10.592   9.252 -0.7080  1.1656 -0.3454
 6448UDC     C570922  15.771  10.628   9.286 -0.2590 -0.4218 -0.5481
 6448UDC     C670923  15.711  10.688   9.162 -0.0409 -0.4578  1.0542
 6448UDC     C770924  15.585  10.754   9.213 -0.1251 -0.2906  1.0467
 6448UDC     C870925  15.598  10.847   9.334 -0.6141  0.7561 -0.5479
 6448UDC     C970926  15.476  10.933   9.375  0.4630  0.2190  0.9938
 6448UDC    C1070927  15.354  10.844   9.423 -0.4275  0.1253  0.6149
 6448UDC    C1170928  15.260  10.918   9.514 -0.1324 -0.3941 -0.0806
 6449UDC     C170929  15.090   7.804  11.258  0.1463  0.5987  0.4628
 6449UDC     C270930  15.055   7.723  11.391 -0.0728  0.7304  0.4436
 6449UDC     C370931  15.087   7.577  11.378 -0.8524 -0.0371  0.5853
 6449UDC     C470932  15.175   7.520  11.492 -0.8374 -1.1234  0.8160
 6449UDC     C570933  15.182   7.372  11.547  0.6407 -0.6006  0.2673
 6449UDC     C670934  15.042   7.306  11.535  0.5125 -0.3728  0.7367
 6449UDC     C770935  14.916   7.381  11.578 -0.3240  0.8182  0.4514
 6449UDC     C870936  14.793   7.294  11.550 -0.8923  0.8207  0.0807
 6449UDC     C970937  14.683   7.387  11.499  0.6812  0.5415  0.4589
 6449UDC    C1070938  14.710   7.468  11.373  0.3468 -0.2329 -0.4406
 6449UDC    C1170939  14.578   7.495  11.299 -0.1100 -0.0589 -0.0124
 6450UDC     C170940  18.629   2.108   6.214  0.4119 -0.7389 -1.4803
 6450UDC     C270941  18.671   2.043   6.347  0.4782 -1.1914 -0.4591
 6450UDC     C370942  18.602   1.922   6.386  0.9886  0.9399 -0.2970
 6450UDC     C470943  18.458   1.976   6.409 -0.5922  1.0709  0.2347
 6450UDC     C570944  18.372   1.852   6.383  0.7898 -0.1992  0.2173
 6450UDC     C670945  18.238   1.875   6.452  0.1364  0.0476 -0.5386
 6450UDC     C770946  18.158   2.012   6.424 -0.7896 -0.2301  0.3181
 6450UDC     C870947  18.051   2.053   6.526 -1.0521  1.1678  0.6433
 6450UDC     C970948  17.960   2.172   6.493  0.1384 -0.0157 -0.9089
 6450UDC    C1070949  17.867   2.168   6.368  0.1605 -0.4576 -0.1020
 6450UDC    C1170950  17.715   2.194   6.374 -0.0708 -0.4783 -0.2604
 6451UDC     C170951   4.804   5.809   8.257  0.1693  0.2196  0.0054
 6451UDC     C270952   4.875   5.891   8.151 -0.9167 -0.1166 -0.0614
 6451UDC     C370953   4.756   5.955   8.072  0.1393  0.7158  0.3313
 6451UDC     C470954   4.710   6.096   8.081  0.1372  0.1762  0.3195
 6451UDC     C570955   4.603   6.136   7.979 -0.4873  0.1925  0.3310
 6451UDC     C670956   4.582   6.283   7.947 -1.0250 -0.2798  0.4059
 6451UDC     C770957   4.561   6.385   8.060  0.4827  0.2632 -1.2128
 6451UDC     C870958   4.436   6.372   8.149 -0.8588  0.3001 -0.1596
 6451UDC     C970959   4.300   6.403   8.075  0.3769 -0.6330 -0.2982
 6451UDC    C1070960   4.168   6.407   8.168  0.9447 -1.0706 -0.0301
 6451UDC    C1170961   4.114   6.272   8.222  0.1476  0.5458 -0.5443
 6452UDC     C170962  19.782   3.428   1.100  0.6218 -0.0004  0.1009
 6452UDC     C270963  19.895   3.369   1.186 -0.1856  0.0859  1.7532
 6452UDC     C370964  20.029   3.432   1.156 -0.7749 -0.2077  0.5622
 6452UDC     C470965  20.109   3.454   1.294  0.9449  1.1447 -0.6404
 6452UDC     C570966  20.066   3.564   1.389 -0.9348 -0.1677 -0.7218
 6452UDC     C670967  20.085   3.710   1.332  0.9419  0.5738 -0.6361
 6452UDC     C770968  20.084   3.827   1.439 -0.9662  0.6740  0.3540
 6452UDC     C870969  20.055   3.965   1.379  0.1132  0.5819 -1.6446
 6452UDC     C970970  20.047   4.048   1.511  0.7968  0.0738  0.5384
 6452UDC    C1070971  20.038   4.195   1.466  0.1297 -0.4293 -0.6920
 6452UDC    C1170972  19.929   4.221   1.365  0.3807 -0.5555 -0.6048
 6453UDC     C170973  14.771  10.482   2.313  0.2275  1.1182 -0.0778
 6453UDC     C270974  14.823  10.347   2.271  0.8626  0.6548  0.3002
 6453UDC     C370975  14.923  10.290   2.373  0.1805 -0.7272  0.2099
 6453UDC     C470976  15.038  10.196   2.329 -0.5905 -0.9559  0.1094
 6453UDC     C570977  15.140  10.184   2.439  0.0091  0.2205  0.1439
 6453UDC     C670978  15.210  10.310   2.493 -0.7463  0.0521  0.9453
 6453UDC     C770979  15.317  10.276   2.595 -0.8034  0.7713  0.5005
 6453UDC     C870980  15.393  10.395   2.657  0.6661  0.1480 -1.0071
 6453UDC     C970981  15.512  10.345   2.745  0.7786 -0.1862  0.0924
 6453UDC    C1070982  15.639  10.354   2.661  0.8990  0.4823  0.8348
 6453UDC    C1170983  15.767  10.312   2.735 -0.0257 -0.2470 -0.0721
 6454UDC     C170984   2.197   4.259   9.275 -0.4835 -0.5933  0.4860
 6454UDC     C270985   2.085   4.226   9.376 -0.5678 -0.3485  0.3311
 6454UDC     C370986   1.974   4.143   9.305 -0.6514  0.1756  0.2081
 6454UDC     C470987   2.029   4.085   9.181 -0.6100  0.4406  0.0185
 6454UDC     C570988   1.947   3.978   9.117  1.3951 -0.7756  0.5419
 6454UDC     C670989   2.019   3.890   9.019  0.7168 -0.3057  0.1770
 6454UDC     C770990   1.929   3.823   8.911 -0.3051 -0.0206 -0.0005
 6454UDC     C870991   1.867   3.907   8.798 -0.6748 -0.0113 -0.9410
 6454UDC     C970992   1.973   3.995   8.731 -0.3694 -0.4226  0.7421
 6454UDC    C1070993   1.879   4.061   8.617 -1.0371 -0.6209  0.4830
 6454UDC    C1170994   1.957   4.151   8.514 -0.2183 -0.8906 -0.7383
 6455UDC     C170995  12.291   4.909  10.711  0.4777 -0.2063  1.4549
 6455UDC     C270996  12.404   4.934  10.609 -0.8698 -0.0593 -0.1982
 6455UDC     C370997  12.355   5.003  10.480 -1.0832 -0.5757  0.8296
 6455UDC     C470998  12.270   4.902  10.409 -0.3169 -0.6412  0.5724
 6455UDC     C570999  12.171   4.966  10.311  1.1015  0.4868 -0.0556
 6455UDC     C671000  12.079   4.887  10.208 -0.5221  0.3230  1.1436
 6455UDC     C771001  11.934   4.854  10.244  0.1038  0.4119  0.0946
 6455UDC     C871002  11.905   4.703  10.265 -1.2211 -0.2446 -0.0852
 6455UDC     C971003  11.760   4.669  10.314 -0.6580 -1.7297 -0.0951
 6455UDC    C1071004  11.754   4.745  10.450 -0.5246 -0.2335  0.4324
 6455UDC    C1171005  11.643   4.698  10.544 -0.7167 -0.6796 -0.4836
 6456UDC     C171006   2.530   9.073  10.130 -0.3642 -0.8377 -0.2683
 6456UDC     C271007   2.540   9.227  10.153  0.9580 -0.4560 -0.3491
 6456UDC     C371008   2.657   9.306  10.080  0.9286  0.7725  0.1426
 6456UDC     C471009   2.794   9.306  10.146 -0.2249  0.1055  0.3165
 6456UDC     C571010   2.793   9.379  10.280 -0.4234  0.7519 -0.1352
 6456UDC     C671011   2.826   9.529  10.274  0.3830  0.4477 -0.6580
 6456UDC     C771012   2.826   9.604  10.410 -1.2110 -0.3800  0.8440
 6456UDC     C871013   2.688   9.608  10.480 -0.0613 -0.4699  0.8158
 6456UDC     C971014   2.716   9.668  10.620  1.0094  0.0343 -0.4866
 6456UDC    C1071015   2.603   9.687  10.721 -0.7259  0.0697  0.6520
 6456UDC    C1171016   2.501   9.796  10.670  0.1152 -0.6865 -0.2342
 6457UDC     C171017  18.991  14.590  11.056  0.4371  0.4553 -0.4934
 6457UDC     C271018  19.100  14.572  10.949  0.1297  0.3529 -1.0335
 6457UDC     C371019  19.201  14.673  10.996  1.3835 -0.0027  0.2069
 6457UDC     C471020  19.331  14.696  10.916 -1.2727  0.0611 -0.9024
 6457UDC     C571021  19.319  14.815  10.816  0.2917  0.2568 -0.6268
 6457UDC     C671022  19.414  14.925  10.859 -0.2447  0.0655 -0.6784
 6457UDC     C771023  19.437  15.059  10.786 -0.2754  0.4812  0.5414
 6457UDC     C871024  19.505  15.155  10.888  1.5006 -0.3496  0.4444
 6457UDC     C971025  19.600  15.077  10.978 -0.4996 -0.1303 -0.7005
 6457UDC    C1071026  19.631  15.177  11.092  0.3376 -1.1212  0.7609
 6457UDC    C1171027  19.749  15.144  11.180 -0.7014 -0.9675 -0.6195
 6458UDC     C171028   5.261   4.996   1.943  0.5110  0.1293  0.2087
 6458UDC     C271029   5.123   4.934   1.985  0.6252 -1.2449  0.6143
 6458UDC     C371030   5.104   4.790   1.943  0.7795 -0.3474 -0.1567
 6458UDC     C471031   4.951   4.763   1.905 -0.0923  0.3369  0.2711
 6458UDC     C571032   4.861   4.744   2.027  0.0635  0.4714  0.0625
 6458UDC     C671033   4.746   4.839   2.067  0.4343  0.2737  0.0100
 6458UDC     C771034   4.634   4.752   2.137  0.1233  0.0878 -0.6748
 6458UDC     C871035   4.550   4.819   2.251  1.0699  1.4541 -0.3245
 6458UDC     C971036   4.436   4.721   2.315  0.3383 -0.0830  0.0447
 6458UDC    C1071037   4.302   4.781   2.365 -0.1249  0.1976 -0.3861
 6458UDC    C1171038   4.197   4.674   2.411 -0.2825 -0.1040 -1.1120
 6459UDC     C171039   3.159  17.198   2.597  0.4030 -0.1299  0.4596
 6459UDC     C271040   3.276  17.104   2.618  0.3585 -0.8808 -0.1593
 6459UDC     C371041   3.246  16.985   2.698  0.3902 -0.3599 -0.8135
 6459UDC     C471042   3.144  16.990   2.813  0.0756  1.0938  1.0251
 6459UDC     C571043   3.161  17.093   2.921 -0.4878 -0.7863  1.1270
 6459UDC     C671044   3.284  17.085   3.010  0.5820 -0.0931 -0.7235
 6459UDC     C771045   3.248  17.145   3.148 -0.3656 -1.0273 -0.2231
 6459UDC     C871046   3.342  17.246   3.218  0.3418 -0.1676 -0.6846
 6459UDC     C971047   3.483  17.184   3.257  0.6920 -0.3973  0.2730
 6459UDC    C1071048   3.556  17.278   3.355  0.2075  0.1365 -1.1061
 6459UDC    C1171049   3.708  17.266   3.375  0.2904  0.6946 -0.3061
 6460UDC     C171050   5.201  12.314  16.908 -0.3590  0.2639 -0.8607
 6460UDC     C271051   5.188  12.442  16.987  0.2578 -0.0045  0.6160
 6460UDC     C371052   5.327  12.484  17.043 -0.7674  0.1100  0.9021
 6460UDC     C471053   5.421  12.360  17.059  0.2522 -0.4483 -0.7101
 6460UDC     C571054   5.548  12.383  17.138  1.0984  0.5129  1.2577
 6460UDC     C671055   5.631  12.255  17.145 -0.2508 -0.1038 -0.2418
 6460UDC     C771056   5.760  12.250  17.231  0.6284  0.0690  1.3829
 6460UDC     C871057   5.903  12.269  17.173  0.2390 -0.1295  0.8249
 6460UDC     C971058   6.006  12.259  17.282  0.0735  0.6477 -0.0671
 6460UDC    C1071059   6.009  12.133  17.368 -0.6689  0.0770 -0.9732
 6460UDC    C1171060   6.132  12.115  17.460  0.0496 -0.5266 -0.0913
 6461UDC     C171061  10.114  17.830   9.952  0.3661  0.0233 -0.2582
 6461UDC     C271062  10.196  17.708   9.921  0.4548  0.4742  0.5084
 6461UDC     C371063  10.205  17.598  10.027 -0.4715  0.6318 -0.5287
 6461UDC     C471064  10.055  17.560  10.075 -1.1080 -0.1320  0.2483
 6461UDC     C571065  10.052  17.465  10.192 -0.9338 -0.3413  0.0118
 6461UDC     C671066   9.916  17.411  10.238  1.3681 -1.0473 -0.4686
 6461UDC     C771067   9.811  17.510  10.296 -0.4256 -0.5134 -0.3185
 6461UDC     C871068   9.831  17.548  10.444  0.4952 -0.0549 -0.5348
 6461UDC     C971069   9.714  17.647  10.495 -0.6548  2.1080 -0.1030
 6461UDC    C1071070   9.719  17.799  10.475 -0.4734  0.8819 -0.0481
 6461UDC    C1171071   9.846  17.854  10.541  0.7224 -0.8045 -0.1621
 6462UDC     C171072   3.683  18.662   6.564 -1.2907  0.3914  0.7481
 6462UDC     C271073   3.746  18.808   6.562 -0.6448 -0.1793  0.4595
 6462UDC     C371074   3.891  18.782   6.521 -0.5674  0.1317  0.3929
 6462UDC     C471075   3.941  18.715   6.395  0.0671 -0.0044 -0.5305
 6462UDC     C571076   4.089  18.685   6.380  0.8567  0.4568  0.1626
 6462UDC     C671077   4.140  18.580   6.472  0.1788 -0.1092 -0.3613
 6462UDC     C771078   4.107  18.430   6.435  0.1400 -0.3672 -0.2637
 6462UDC     C871079   4.104  18.337   6.563 -0.6784  0.6399  1.3564
 6462UDC     C971080   4.206  18.222   6.565 -0.0153 -0.2185 -0.4219
 6462UDC    C1071081   4.307  18.268   6.669 -0.0104  0.4128 -0.8784
 6462UDC    C1171082   4.307  18.244   6.821 -0.7496  0.6440  1.5225
 6463UDC     C171083   4.286  11.820   5.959 -0.1691 -0.4633  0.0653
 6463UDC     C271084   4.393  11.913   6.025 -0.3688 -0.0680  0.6552
 6463UDC     C371085   4.481  11.965   5.913  0.2730  1.1376  1.3577
 6463UDC     C471086   4.574  11.851   5.851 -0.1861 -0.3742  0.6479
 6463UDC     C571087   4.711  11.876   5.786  1.1523  1.1419 -0.1784
 6463UDC     C671088   4.788  11.994   5.846 -1.7830  0.3705 -0.9867
 6463UDC     C771089   4.916  12.036   5.767  0.7156  0.8592  0.2888
 6463UDC     C871090   5.049  12.012   5.846 -0.4693 -0.6214  0.2694
 6463UDC     C971091   5.152  11.962   5.750  0.3371 -1.2266  0.0773
 6463UDC    C1071092   5.279  11.926   5.832  0.0693  0.3536  1.2225
 6463UDC    C1171093   5.405  11.872   5.772 -0.1536  0.0197  0.5411
 6464UDC     C171094   4.656   3.466   5.715  0.3255 -0.8677  0.6513
 6464UDC     C271095   4.607   3.514   5.856  0.5621  0.2541 -0.1282
 6464UDC     C371096   4.710   3.529   5.969 -1.1967  0.5053  0.4727
 6464UDC     C471097   4.818   3.643   5.971 -0.5428 -0.6903 -0.5507
 6464UDC     C571098   4.781   3.785   6.026 -1.1403  0.2259 -0.5786
 6464UDC     C671099   4.876   3.896   5.985  0.4860 -1.3224  0.1261
 6464UDC     C771100   4.825   4.044   6.018 -0.3521  0.4384 -0.4549
 6464UDC     C871101   4.876   4.164   5.943 -1.0504  0.0315  1.1003
 6464UDC     C971102   4.838   4.303   6.003 -0.3636  0.2982  0.5350
 6464UDC    C1071103   4.927   4.426   5.968 -0.7867  0.0362  0.1469
 6464UDC    C1171104   4.894   4.546   6.053  0.5759 -0.4337 -0.1583
 6465UDC     C171105   2.727  12.655  11.159 -0.2010 -0.8075  0.2887
 6465UDC     C271106   2.868  12.641  11.094  0.1203 -0.1852 -0.4944
 6465UDC     C371107   2.971  12.548  11.158  1.0269  0.2760  0.2934
 6465UDC     C471108   2.935  12.401  11.192 -0.6964 -0.4437 -0.6549
 6465UDC     C571109   3.052  12.309  11.219  0.6685 -0.1441 -0.3877
 6465UDC     C671110   3.156  12.265  11.110  0.7371  0.0128  0.4536
 6465UDC     C771111   3.297  12.223  11.163  0.7912  0.8071 -0.0553
 6465UDC     C871112   3.411  12.270  11.069 -0.6376  0.1103  0.3008
 6465UDC     C971113   3.466  12.160  10.973  0.3069  0.5821 -0.0950
 6465UDC    C1071114   3.498  12.023  11.046 -0.6279  0.6514  1.1512
 6465UDC    C1171115   3.525  11.935  10.915  0.6674  0.0320 -0.6856
 6466UDC     C171116   6.988  15.048   5.837 -0.5007  0.4993 -0.5419
 6466UDC     C271117   7.087  14.925   5.831  0.6355  0.2180  0.3750
 6466UDC     C371118   7.215  14.966   5.760 -0.2294  0.5003  0.6669
 6466UDC     C471119   7.318  15.037   5.850  0.0070  0.2416  0.1149
 6466UDC     C571120   7.423  14.953   5.921  0.5328 -0.2697 -0.3790
 6466UDC     C671121   7.494  14.866   5.812 -0.6542 -0.0613  0.3093
 6466UDC     C771122   7.596  14.773   5.871 -0.5725  0.0089 -0.0678
 6466UDC     C871123   7.614  14.622   5.835 -0.3439 -0.5494 -0.5838
 6466UDC     C971124   7.756  14.560   5.845  0.6816  0.3966 -0.3448
 6466UDC    C1071125   7.783  14.424   5.767 -0.4313 -1.0072 -1.1172
 6466UDC    C1171126   7.906  14.353   5.831  0.1563  0.3832 -0.3351
 6467UDC     C171127  11.817  10.237   4.369 -0.6332 -0.5575  0.3927
 6467UDC     C271128  11.862  10.177   4.512  0.6530 -0.5111  0.8417
 6467UDC     C371129  11.786  10.051   4.556  0.2995  0.7605  0.0046
 6467UDC     C471130  11.866  10.020   4.688  0.4675 -0.0903 -1.0480
 6467UDC     C571131  11.774   9.989   4.811  1.1628  0.4245 -0.1928
 6467UDC     C671132  11.870   9.980   4.929  0.1571 -0.0127 -0.1643
 6467UDC     C771133  11.940  10.115   4.961 -0.0550  0.5713 -0.3336
 6467UDC     C871134  12.033  10.107   5.083  0.4554  1.3039  0.3611
 6467UDC     C971135  12.154  10.200   5.067 -0.6848  0.1813  0.7253
 6467UDC    C1071136  12.152  10.324   5.161 -0.6703 -1.1470  0.8599
 6467UDC    C1171137  12.264  10.434   5.151  0.1977 -0.2633 -0.7493
 6468UDC     C171138  16.302   1.598  13.275 -0.6396  0.8184  0.3118
 6468UDC     C271139  16.341   1.446  13.276  0.1371 -0.5669 -0.4580
 6468UDC     C371140  16.495   1.411  13.285 -0.4773 -0.0948 -0.2084
 6468UDC     C471141  16.521   1.271  13.340  0.6600 -0.5416  0.5224
 6468UDC     C571142  16.525   1.237  13.490 -0.1051  0.4468 -0.4527
 6468UDC     C671143  16.537   1.093  13.539  1.0889  0.7324  0.1812
 6468UDC     C771144  16.415   1.009  13.494  0.8832  0.1813  0.7433
 6468UDC     C871145  16.280   1.069  13.551  0.6006 -0.4017 -0.0477
 6468UDC     C971146  16.159   1.005  13.476  0.2164 -0.1897 -1.4483
 6468UDC    C1071147  16.140   0.848  13.479  1.3625  0.2624  1.1127
 6468UDC    C1171148  16.029   0.798  13.372  0.1950  0.8010 -0.6962
 6469UDC     C171149   9.522   1.914   7.064 -0.1009  1.4210  0.6758
 6469UDC     C271150   9.601   1.805   7.137  0.2491  0.8903 -0.2876
 6469UDC     C371151   9.690   1.723   7.034 -0.1870 -0.3526 -0.2955
 6469UDC     C471152   9.615   1.649   6.921 -0.2906 -0.0877 -0.2278
 6469UDC     C571153   9.639   1.695   6.770 -0.0966 -0.9017 -0.0883
 6469UDC     C671154   9.619   1.602   6.649 -0.8649  0.5023  0.1583
 6469UDC     C771155   9.609   1.657   6.507 -0.6038  0.7781  0.0678
 6469UDC     C871156   9.687   1.557   6.417  0.0073 -0.3718 -0.4073
 6469UDC     C971157   9.644   1.533   6.274 -0.7699 -1.3601 -0.4861
 6469UDC    C1071158   9.737   1.446   6.191 -0.7356  0.3215 -0.6748
 6469UDC    C1171159   9.701   1.466   6.045  0.9118 -1.5332  0.9301
 6470UDC     C171160  17.830   6.897   7.920  0.6624  0.0243  0.7444
 6470UDC     C271161  17.762   6.906   8.059 -0.2761  0.3244 -0.6368
 6470UDC     C371162  17.661   6.793   8.051 -0.8255  0.1904  0.8724
 6470UDC     C471163  17.629   6.712   8.183  0.0012  0.6616 -0.5623
 6470UDC     C571164  17.606   6.796   8.312  0.4994 -0.1333  0.3144
 6470UDC     C671165  17.676   6.747   8.444 -0.2067  0.2316 -0.3985
 6470UDC     C771166  17.615   6.814   8.570 -0.4919 -0.2732  0.2702
 6470UDC     C871167  17.632   6.961   8.580  0.8037  0.0617  0.4412
 6470UDC     C971168  17.639   6.995   8.728 -0.4844  0.7115 -0.0342
 6470UDC    C1071169  17.678   7.142   8.758 -0.4542 -0.4534  0.0164
 6470UDC    C1171170  17.652   7.240   8.632  0.2053  0.8581 -1.5297
 6471UDC     C171171  17.768  12.739   3.134  0.5656 -0.3058 -1.3320
 6471UDC     C271172  17.653  12.841   3.110  0.7535  1.0373 -0.9546
 6471UDC     C371173  17.710  12.980   3.118  0.2630 -0.3771 -1.2506
 6471UDC     C471174  17.719  13.048   3.257  0.0976 -0.1870  0.4817
 6471UDC     C571175  17.785  13.188   3.270  0.3766  0.5956 -0.9494
 6471UDC     C671176  17.764  13.223   3.421 -0.3167  0.2088 -0.7571
 6471UDC     C771177  17.784  13.372   3.453  0.3434 -0.5891 -0.0359
 6471UDC     C871178  17.922  13.432   3.431  0.0498  0.6976  1.1362
 6471UDC     C971179  17.985  13.549   3.521  0.1815 -0.5976  0.8039
 6471UDC    C1071180  18.128  13.573   3.491  0.1204  0.3885  0.1910
 6471UDC    C1171181  18.235  13.467   3.536  0.1598  0.1275  0.4742
 6472UDC     C171182  16.562   8.537  19.287  0.4263 -0.3976 -0.1925
 6472UDC     C271183  16.696   8.598  19.352  0.4608 -0.3516  0.4761
 6472UDC     C371184  16.834   8.543  19.313  0.0067  0.2110 -0.1240
 6472UDC     C471185  16.844   8.479  19.177  0.3874 -0.9227  0.1780
 6472UDC     C571186  16.982   8.457  19.113 -0.3585  0.3685  0.1021
 6472UDC     C671187  17.002   8.465  18.960 -0.5779  0.1028 -0.8774
 6472UDC     C771188  16.983   8.338  18.879  0.3788 -0.4863 -0.0976
 6472UDC     C871189  16.837   8.295  18.871 -0.6261 -0.3050 -0.0234
 6472UDC     C971190  16.772   8.397  18.784 -0.5424 -0.0735  0.4418
 6472UDC    C1071191  16.624   8.368  18.739 -0.4376 -0.7999 -0.5268
 6472UDC    C1171192  16.501   8.448  18.801  0.1746 -0.1034 -0.5859
 6473UDC     C171193   9.592   0.981  15.398  0.0784  0.1574 -0.1818
 6473UDC     C271194   9.562   1.058  15.534 -0.6844 -0.8578 -0.2626
 6473UDC     C371195   9.635   1.194  15.564  0.1107  0.1870  0.9437
 6473UDC     C471196   9.601   1.311  15.475  0.6606 -0.3200  0.8264
 6473UDC     C571197   9.455   1.355  15.484  1.1296 -0.3277 -0.0378
 6473UDC     C671198   9.418   1.468  15.587 -0.5748 -0.6577  0.7396
 6473UDC     C771199   9.421   1.458  15.745  0.7136  0.3760  1.0875
 6473UDC     C871200   9.308   1.390  15.828 -0.9569  0.4558  0.6577
 6473UDC     C971201   9.374   1.343  15.959  0.2171 -0.3495  0.5267
 6473UDC    C1071202   9.263   1.288  16.057  0.3036  0.7324  0.5440
 6473UDC    C1171203   9.313   1.210  16.182  1.3546  0.1554  0.6029
 6474UDC     C171204   0.678   7.505  18.784  0.4422  0.4070 -0.6230
 6474UDC     C271205   0.813   7.504  18.708 -0.6853  0.0662 -0.2307
 6474UDC     C371206   0.931   7.511  18.814 -0.5289 -0.0912  0.6649
 6474UDC     C471207   0.887   7.541  18.964 -0.5353  0.2255 -0.5164
 6474UDC     C571208   1.006   7.567  19.063 -0.6619 -0.2182 -0.1849
 6474UDC     C671209   0.960   7.606  19.206  0.9710  0.3672 -0.7656
 6474UDC     C771210   1.078   7.643  19.292 -0.0797  0.8954 -0.2233
 6474UDC     C871211   1.158   7.542  19.361  0.0930  0.5987 -0.0422
 6474UDC     C971212   1.075   7.469  19.467  0.3479 -0.1591 -0.5710
 6474UDC    C1071213   1.150   7.460  19.598 -1.3209 -0.8825 -0.3567
 6474UDC    C1171214   1.285   7.387  19.583 -0.3685 -0.4840 -0.0309
 6475UDC     C171215   6.995  13.411   2.030 -0.3842 -0.5688 -0.5578
 6475UDC     C271216   7.014  13.360   1.887  0.7013 -0.7877  0.9489
 6475UDC     C371217   7.105  13.443   1.796 -0.4980 -0.3006  0.9157
 6475UDC     C471218   7.253  13.418   1.770  0.5223 -0.9405 -0.6218
 6475UDC     C571219   7.293  13.474   1.626 -0.0472 -0.9391  0.8912
 6475UDC     C671220   7.441  13.517   1.619  0.1039  0.3843  0.6281
 6475UDC     C771221   7.469  13.560   1.473 -0.0204 -0.5750  0.8539
 6475UDC     C871222   7.373  13.677   1.436  0.8824  0.2321 -0.2168
 6475UDC     C971223   7.290  13.668   1.304 -0.6683 -0.1745  0.6347
 6475UDC    C1071224   7.198  13.789   1.305  0.6349  0.3174 -0.3655
 6475UDC    C1171225   7.273  13.915   1.329  0.0549 -1.0364 -0.4228
 6476UDC     C171226   5.293   5.715  16.526 -0.2927  0.5754 -0.0768
 6476UDC     C271227   5.168   5.689  16.613  0.2420  0.2822 -0.4972
 6476UDC     C371228   5.169   5.566  16.710  0.3780 -0.8040  0.4790
 6476UDC     C471229   5.027   5.565  16.776  0.3798 -1.1098 -0.2184
 6476UDC     C571230   4.999   5.450  16.870  0.7267 -0.3606  0.9086
 6476UDC     C671231   4.943   5.319  16.808 -0.7241 -1.1114 -0.7359
 6476UDC     C771232   4.992   5.278  16.666 -0.5020 -0.0867 -0.8542
 6476UDC     C871233   4.961   5.134  16.627 -0.3528 -0.1183  0.4119
 6476UDC     C971234   4.818   5.105  16.584  0.3418 -0.0193 -0.7417
 6476UDC    C1071235   4.780   4.957  16.582 -0.1162  0.1875  0.1750
 6476UDC    C1171236   4.856   4.868  16.479 -0.3337  1.2707 -0.6544
 6477UDC     C171237   6.089  10.408  11.738 -0.1171  1.0138  0.1316
 6477UDC     C271238   5.947  10.455  11.774  1.0176  0.5571  0.6014
 6477UDC     C371239   5.874  10.501  11.648 -0.1932 -0.4644 -0.1966
 6477UDC     C471240   5.827  10.647  11.646 -1.5682 -0.7205  0.9700
 6477UDC     C571241   5.919  10.725  11.559 -0.3097 -0.7164  0.6664
 6477UDC     C671242   5.952  10.679  11.414 -0.8627 -1.0355  0.1612
 6477UDC     C771243   5.986  10.802  11.325 -0.0411 -0.8609  0.0000
 6477UDC     C871244   6.070  10.791  11.190 -0.7714 -0.8263 -1.7292
 6477UDC     C971245   6.145  10.921  11.164  0.5869 -1.3108  0.3429
 6477UDC    C1071246   6.169  10.931  11.013 -0.0334  0.6250  0.4505
 6477UDC    C1171247   6.241  11.064  10.963  0.1697 -0.1956  0.1651
 6478UDC     C171248  18.854  18.403  10.258  0.7303  0.6810 -0.1712
 6478UDC     C271249  18.922  18.268  10.225 -0.4142 -0.7687 -0.2101
 6478UDC     C371250  18.929  18.179  10.349  0.5767  0.2163  0.3550
 6478UDC     C471251  18.975  18.051  10.293  0.0267 -0.5358  1.0004
 6478UDC     C571252  19.107  18.048  10.222  0.0489  0.2155  0.0624
 6478UDC     C671253  19.206  17.926  10.240  0.7281  0.2471 -1.2899
 6478UDC     C771254  19.299  17.938  10.367  0.9422  0.4623  1.5774
 6478UDC     C871255  19.372  18.072  10.387 -0.1293  0.9726  0.2065
 6478UDC     C971256  19.486  18.051  10.496 -0.0030  0.0446  0.0127
 6478UDC    C1071257  19.519  18.182  10.565  0.2001  0.2994  0.0704
 6478UDC    C1171258  19.395  18.251  10.643 -0.3743 -0.0229  0.0996
 6479UDC     C171259   0.981  13.134   2.249 -0.2029  0.9479 -0.4179
 6479UDC     C271260   1.015  13.045   2.128 -0.0709  1.0719 -0.0177
 6479UDC     C371261   1.077  13.114   1.999  0.6868 -0.4339  0.5145
 6479UDC     C471262   1.172  13.040   1.899 -0.0940  1.9899 -0.7674
 6479UDC     C571263   1.297  12.974   1.974 -0.0791 -1.1237  0.5115
 6479UDC     C671264   1.402  12.902   1.893  0.1549  0.1851  0.5422
 6479UDC     C771265   1.517  12.998   1.860 -0.6237  0.2898  0.3347
 6479UDC     C871266   1.572  12.964   1.723 -0.2794 -0.0554 -0.7596
 6479UDC     C971267   1.591  12.814   1.714  0.3672  0.1767  0.4183
 6479UDC    C1071268   1.706  12.763   1.788 -1.2007 -0.2106  0.3816
 6479UDC    C1171269   1.759  12.626   1.746  0.6667 -0.3744  0.2358
 6480UDC     C171270   2.299   0.183  16.205  0.5521  0.3046  0.2456
 6480UDC     C271271   2.434   0.217  16.264  0.6175  0.6721  0.0542
 6480UDC     C371272   2.494   0.119  16.368 -1.7045 -0.6808 -0.7686
 6480UDC     C471273   2.453  -0.023  16.344  0.5574  0.2345  0.4989
 6480UDC     C571274   2.494  -0.100  16.472  0.6752 -0.2417 -1.2489
 6480UDC     C671275   2.411  -0.231  16.514 -0.9472  0.1252 -0.2249
 6480UDC     C771276   2.464  -0.368  16.463  0.4220  1.2604 -0.4292
 6480UDC     C871277   2.605  -0.422  16.500  0.6216 -0.7687  0.3710
 6480UDC     C971278   2.687  -0.435  16.375 -1.2450 -0.1453  0.9847
 6480UDC    C1071279   2.810  -0.519  16.404  0.5459  0.4853  0.0471
 6480UDC    C1171280   2.912  -0.488  16.519 -0.9215  0.1593 -0.0667
 6481UDC     C171281  16.547  13.652  14.358  0.5530 -0.4187 -0.3640
 6481UDC     C271282  16.417  13.727  14.368  0.0602 -1.6050 -1.1267
 6481UDC     C371283  16.333  13.737  14.245  0.0229  0.3031  0.2882
 6481UDC     C471284  16.191  13.796  14.270  0.5758 -0.1782  0.2437
 6481UDC     C571285  16.103  13.775  14.144 -0.9006 -0.3875 -1.4579
 6481UDC     C671286  16.157  13.865  14.028  0.8395  0.9536 -0.6690
 6481UDC     C771287  16.125  13.796  13.896  0.0974 -0.6605 -0.3766
 6481UDC     C871288  16.158  13.645  13.886 -0.2845 -0.1968 -0.6840
 6481UDC     C971289  16.145  13.553  13.764 -0.4525 -0.1772  0.3772
 6481UDC    C1071290  16.178  13.408  13.799 -0.7711 -0.8572  0.5174
 6481UDC    C1171291  16.152  13.316  13.681  0.3201 -1.0495  1.1024
 6482UDC     C171292  12.391  13.695   0.895  0.3114 -0.9994  1.0251
 6482UDC     C271293  12.424  13.544   0.931 -0.1951  0.6510  0.4792
 6482UDC     C371294  12.370  13.440   0.830 -0.4749 -0.6552  0.8557
 6482UDC     C471295  12.360  13.293   0.883  1.1390 -0.2485  1.2689
 6482UDC     C571296  12.481  13.214   0.893 -0.2182  0.7981 -0.3664
 6482UDC     C671297  12.493  13.117   1.014  0.0556 -0.2826  0.5679
 6482UDC     C771298  12.523  12.967   0.984  1.7827  0.3144 -0.2702
 6482UDC     C871299  12.547  12.894   1.120 -0.3409 -1.2028  0.5353
 6482UDC     C971300  12.538  12.744   1.106  0.3173 -0.0952  0.6816
 6482UDC    C1071301  12.564  12.668   1.230 -0.0634 -0.3074 -0.2189
 6482UDC    C1171302  12.613  12.522   1.203 -0.3971  0.0040 -1.1869
 6483UDC     C171303   2.387   6.710  10.856 -0.5358 -0.1542 -0.1928
 6483UDC     C271304   2.300   6.809  10.927 -0.0008 -1.0563 -0.7684
 6483UDC     C371305   2.353   6.954  10.933 -0.4226  0.0390 -0.4669
 6483UDC     C471306   2.279   7.060  11.020 -0.4025  0.0993  0.6616
 6483UDC     C571307   2.225   7.000  11.153  0.2894 -0.3958  0.5188
 6483UDC     C671308   2.173   7.123  11.232 -0.3748  0.1282  0.5670
 6483UDC     C771309   2.273   7.231  11.273 -0.0447  0.1765 -0.1954
 6483UDC     C871310   2.204   7.373  11.282 -0.6357  0.3847 -0.1873
 6483UDC     C971311   2.164   7.421  11.140 -0.0431 -1.8388 -0.7633
 6483UDC    C1071312   2.085   7.555  11.138 -0.2682  0.0547  0.7562
 6483UDC    C1171313   2.025   7.579  11.275 -0.8082 -0.1310  0.0036
 6484UDC     C171314  14.998   0.689   3.548 -0.7086 -0.7949  0.0855
 6484UDC     C271315  15.063   0.741   3.422 -0.9227 -0.0054 -0.6787
 6484UDC     C371316  15.179   0.662   3.354  0.2508 -0.5865  0.2795
 6484UDC     C471317  15.236   0.727   3.229 -0.6815  0.6523  0.6502
 6484UDC     C571318  15.338   0.637   3.164 -0.4802  1.1293  0.9406
 6484UDC     C671319  15.478   0.622   3.238 -0.1670  0.6167 -0.2929
 6484UDC     C771320  15.590   0.583   3.137 -0.4328 -0.4520 -0.2658
 6484UDC     C871321  15.721   0.540   3.205  0.6960  0.3689 -0.9412
 6484UDC     C971322  15.846   0.514   3.118  0.2959  0.3341  0.0354
 6484UDC    C1071323  15.846   0.401   3.016 -0.9706 -0.6917  0.0295
 6484UDC    C1171324  15.899   0.270   3.072 -0.0772 -0.6462  0.1817
 6485UDC     C171325   1.105   3.615  18.098 -0.1812 -0.1191  0.0024
 6485UDC     C271326   1.066   3.490  18.186  0.6533 -0.7494  0.4536
 6485UDC     C371327   1.038   3.520  18.332  0.2232 -0.4210 -0.9093
 6485UDC     C471328   0.921   3.613  18.354 -0.3882 -0.3817 -0.3253
 6485UDC     C571329   0.784   3.552  18.329  0.5909 -0.3928 -0.4940
 6485UDC     C671330   0.674   3.635  18.384 -0.1616  0.2146  1.2874
 6485UDC     C771331   0.542   3.548  18.370  0.6142 -0.8037 -0.0042
 6485UDC     C871332   0.548   3.426  18.449 -0.5095  0.1769 -0.6437
 6485UDC     C971333   0.429   3.362  18.509 -0.0130 -0.7613 -1.0202
 6485UDC    C1071334   0.437   3.203  18.532  0.0490  0.2561  0.6250
 6485UDC    C1171335   0.448   3.152  18.678  0.1367  0.1224 -0.3332
 6486UDC     C171336   3.309  11.591  11.093 -0.2140  0.2597 -0.6235
 6486UDC     C271337   3.195  11.691  11.105  0.1041 -0.0173 -0.7446
 6486UDC     C371338   3.159  11.760  10.967 -0.3863  0.3459 -0.3522
 6486UDC     C471339   3.055  11.870  10.987 -0.6149 -0.2154 -0.0915
 6486UDC     C571340   2.945  11.889  11.097 -0.2028  0.1842  0.8342
 6486UDC     C671341   2.856  12.016  11.078  0.1315  0.4265 -0.6369
 6486UDC     C771342   2.738  12.048  11.173  0.8436  0.1013 -0.2911
 6486UDC     C871343   2.643  12.134  11.114  0.3280 -0.0357  0.1117
 6486UDC     C971344   2.499  12.116  11.164  0.5196 -0.1708  0.3120
 6486UDC    C1071345   2.389  12.219  11.182 -0.3933  0.3515 -0.4584
 6486UDC    C1171346   2.367  12.265  11.321  0.0461 -1.0255 -0.4493
 6487UDC     C171347   2.921   9.912  19.648 -0.7272 -0.0252 -0.2882
 6487UDC     C271348   2.821   9.896  19.756  0.5864  1.0557 -0.5774
 6487UDC     C371349   2.820   9.761  19.832  0.1092  0.3453 -1.4915
 6487UDC     C471350   2.710   9.657  19.790 -0.0170 -0.3273 -0.1197
 6487UDC     C571351   2.721   9.530  19.879  0.1667  0.0803 -0.8538
 6487UDC     C671352   2.857   9.469  19.841 -0.0920 -0.2459  0.1618
 6487UDC     C771353   2.866   9.322  19.880 -0.2408  0.5876 -0.6857
 6487UDC     C871354   2.797   9.236  19.773 -0.2473 -0.6228 -0.3942
 6487UDC     C971355   2.802   9.090  19.807 -0.4192 -0.7972  0.1302
 6487UDC    C1071356   2.769   9.006  19.683  0.1361 -0.1018 -1.1476
 6487UDC    C1171357   2.786   8.855  19.717 -0.4040  0.4512  0.4169
 6488UDC     C171358   6.315  14.820  19.524 -0.4005 -1.0142  0.8863
 6488UDC     C271359   6.215  14.930  19.485  0.0755 -0.9484 -0.2539
 6488UDC     C371360   6.086  14.891  19.410 -0.6734  0.3219  0.6853
 6488UDC     C471361   6.018  15.016  19.353  0.3223 -0.5653  0.4742
 6488UDC     C571362   5.872  15.051  19.404 -0.9272  0.2148  0.6812
 6488UDC     C671363   5.874  15.094  19.549 -0.8747  0.0119 -0.0809
 6488UDC     C771364   5.741  15.138  19.597  0.2098  0.1540 -0.0248
 6488UDC     C871365   5.642  15.024  19.576 -1.7581 -0.0478  0.3132
 6488UDC     C971366   5.489  15.066  19.601  0.3458  0.1384  0.5848
 6488UDC    C1071367   5.410  14.937  19.614 -0.3086  0.9059 -0.1013
 6488UDC    C1171368   5.299  14.964  19.718 -0.3009 -0.6030  1.0165
 6489UDC     C171369   0.141   8.130  16.160  0.8886 -0.2113 -0.0083
 6489UDC     C271370   0.123   8.162  16.008  0.2368 -1.1313 -1.8232
 6489UDC     C371371   0.114   8.313  15.992 -0.3922  0.0871 -0.3855
 6489UDC     C471372  -0.015   8.375  16.054  0.1331  0.9572  0.6102
 6489UDC     C571373   0.025   8.514  16.097 -0.6950  1.1366  0.1579
 6489UDC     C671374   0.091   8.567  15.970 -0.4157  1.1499 -0.3153
 6489UDC     C771375   0.160   8.706  15.995  0.4195  0.4608 -0.7372
 6489UDC     C871376   0.211   8.752  15.859  1.0758  0.2057 -0.5382
 6489UDC     C971377   0.325   8.670  15.808 -1.0964 -0.4081  1.0218
 6489UDC    C1071378   0.387   8.751  15.694  1.1411 -0.1674  0.5192
 6489UDC    C1171379   0.469   8.675  15.584 -0.2496  0.2320  0.3257
 6490UDC     C171380  11.213  16.496   0.876  0.8656  0.1105  0.5521
 6490UDC     C271381  11.159  16.576   0.997 -0.4798  0.4339 -0.7396
 6490UDC     C371382  11.246  16.573   1.122  0.4678  0.0750 -0.7946
 6490UDC     C471383  11.177  16.660   1.238  1.1429  0.6484  1.0148
 6490UDC     C571384  11.249  16.643   1.371  0.0558 -0.2805 -0.2741
 6490UDC     C671385  11.185  16.728   1.483 -1.2935 -0.2764  0.4621
 6490UDC     C771386  11.040  16.700   1.522 -0.3735 -0.0710  1.0625
 6490UDC     C871387  10.978  16.781   1.637 -0.7848  0.2937 -0.6328
 6490UDC     C971388  10.835  16.736   1.651  1.1575  0.2106 -0.1592
 6490UDC    C1071389  10.740  16.787   1.540  0.2257 -0.3801  1.2438
 6490UDC    C1171390  10.599  16.730   1.544 -0.0461  0.7718  0.9722
 6491UDC     C171391  13.327  13.277   5.061 -0.4140 -0.2200  0.9541
 6491UDC     C271392  13.184  13.227   5.067  0.0674  0.8760  0.2886
 6491UDC     C371393  13.118  13.226   4.923 -0.1157  0.0728 -0.7298
 6491UDC     C471394  13.176  13.129   4.823 -0.9935 -0.2836  0.2177
 6491UDC     C571395  13.100  13.094   4.688  0.2910 -0.9996 -0.2970
 6491UDC     C671396  12.954  13.037   4.711 -1.1063 -0.3670  0.2882
 6491UDC     C771397  12.863  13.006   4.593 -0.2307  0.1931  0.7449
 6491UDC     C871398  12.810  12.855   4.578  0.0448 -0.7356 -0.7615
 6491UDC     C971399  12.680  12.857   4.483 -0.3103 -0.6718  0.0049
 6491UDC    C1071400  12.558  12.944   4.516 -0.4817  0.9400 -0.9100
 6491UDC    C1171401  12.433  12.897   4.434 -0.8647 -0.0877 -0.0806
 6492UDC     C171402  11.644  16.715  17.576  0.0674 -0.5317 -0.0133
 6492UDC     C271403  11.727  16.598  17.638  1.0018  0.2955  0.2463
 6492UDC     C371404  11.739  16.473  17.550 -0.6067 -1.4449 -0.6597
 6492UDC     C471405  11.817  16.359  17.610 -0.2507 -0.1052  0.4049
 6492UDC     C571406  11.900  16.271  17.511  0.5584  0.6166 -0.6906
 6492UDC     C671407  11.913  16.129  17.567 -0.2572 -0.0484  0.3410
 6492UDC     C771408  11.963  16.022  17.460 -0.4130 -0.3929 -0.6019
 6492UDC     C871409  11.871  15.955  17.357  0.2756  0.5194  0.0872
 6492UDC     C971410  11.946  15.885  17.237 -0.7048 -0.0926  0.2113
 6492UDC    C1071411  11.853  15.832  17.124 -1.5216 -0.5815 -0.1316
 6492UDC    C1171412  11.921  15.745  17.017 -0.4942 -0.4383  0.4554
 6493UDC     C171413  16.409   3.612   5.790 -0.4397 -0.1404 -1.2784
 6493UDC     C271414  16.420   3.750   5.717 -0.0246 -0.6662 -0.5000
 6493UDC     C371415  16.275   3.823   5.706 -0.4891 -0.9192  0.4977
 6493UDC     C471416  16.294   3.969   5.668 -0.3524  0.5235 -0.4822
 6493UDC     C571417  16.179   4.061   5.641  0.1032  0.5775 -0.0123
 6493UDC     C671418  16.197   4.205   5.616 -1.3965 -1.0154  0.4991
 6493UDC     C771419  16.064   4.280   5.636 -0.5559 -1.2241  0.3429
 6493UDC     C871420  16.040   4.420   5.581 -1.3871  0.2373 -0.8814
 6493UDC     C971421  16.029   4.429   5.428 -0.6478  0.7527  0.2789
 6493UDC    C1071422  16.149   4.501   5.370 -0.9443  0.3767  0.8350
 6493UDC    C1171423  16.147   4.478   5.222 -0.0541 -0.5823  0.7985
 6494UDC     C171424  19.601  16.514   0.613  0.1732 -0.9073  0.8360
 6494UDC     C271425  19.692  16.537   0.732 -1.4325  0.5986  0.9609
 6494UDC     C371426  19.677  16.413   0.820  1.2125 -0.7589 -1.0483
 6494UDC     C471427  19.801  16.386   0.903  0.3776 -0.4859 -0.4312
 6494UDC     C571428  19.784  16.288   1.017  0.1063  0.0701 -0.3273
 6494UDC     C671429  19.905  16.280   1.112 -0.3548 -1.8872  1.2225
 6494UDC     C771430  19.881  16.182   1.222 -0.4919 -0.3424  1.0915
 6494UDC     C871431  19.994  16.181   1.327 -0.1901 -0.5217 -0.0453
 6494UDC     C971432  19.983  16.055   1.426 -0.5391 -0.4413  0.8081
 6494UDC    C1071433  20.074  15.928   1.411 -0.4518  0.2749 -0.2467
 6494UDC    C1171434  20.180  15.898   1.516 -0.6958 -0.1850  0.0371
 6495UDC     C171435  16.672   0.199   8.732 -0.1042  0.6496  0.4580
 6495UDC     C271436  16.627   0.333   8.790  0.3973  0.2208  0.7823
 6495UDC     C371437  16.482   0.357   8.810  0.8331 -0.6131 -0.5304
 6495UDC     C471438  16.449   0.510   8.810  0.5531 -0.8058  0.0223
 6495UDC     C571439  16.304   0.552   8.771 -1.2132 -0.7824 -0.3449
 6495UDC     C671440  16.187   0.496   8.845  0.5727  0.4202 -1.0532
 6495UDC     C771441  16.052   0.477   8.776  0.0644 -0.5602  0.8739
 6495UDC     C871442  16.089   0.405   8.646 -0.2443  0.1848 -1.0310
 6495UDC     C971443  15.975   0.354   8.557 -0.1185 -0.0131 -1.3834
 6495UDC    C1071444  15.908   0.232   8.614 -0.1863  0.5938 -1.2580
 6495UDC    C1171445  16.008   0.115   8.626 -0.0880 -0.4981 -0.1482
 6496UDC     C171446  19.457   2.153   1.877 -0.0353  0.6926 -0.0093
 6496UDC     C271447  19.555   2.219   1.786 -0.0264  0.0982  0.3959
 6496UDC     C371448  19.697   2.240   1.832  0.9094  0.0417 -0.4487
 6496UDC     C471449  19.701   2.312   1.968 -0.1921  1.7018  0.8962
 6496UDC     C571450  19.636   2.450   1.965  0.0991  0.0096  0.4259
 6496UDC     C671451  19.634   2.503   2.106  0.5681  0.1788  0.4184
 6496UDC     C771452  19.507   2.584   2.128  0.6617 -0.0335  0.0612
 6496UDC     C871453  19.551   2.723   2.179 -0.6696 -0.1353 -0.1845
 6496UDC     C971454  19.656   2.724   2.296 -0.0881 -0.3800  1.0115
 6496UDC    C1071455  19.623   2.842   2.385 -1.1680 -0.1318 -0.6051
 6496UDC    C1171456  19.485   2.825   2.445  0.8896  0.7311  0.2643
 6497UDC     C171457  18.513   9.732   5.228 -0.5504  0.6387  0.0360
 6497UDC     C271458  18.552   9.859   5.160  0.2785  0.4641 -0.5035
 6497UDC     C371459  18.597   9.842   5.019 -0.0056  0.7816  0.7555
 6497UDC     C471460  18.624   9.973   4.949  0.6039  0.2150  0.0350
 6497UDC     C571461  18.704   9.954   4.815 -0.8039  0.1682 -0.2376
 6497UDC     C671462  18.711  10.089   4.742 -0.3328  1.5330 -0.7505
 6497UDC     C771463  18.594  10.129   4.659 -0.5071  0.3848  0.0061
 6497UDC     C871464  18.558  10.271   4.685 -0.6030 -0.8159  0.5611
 6497UDC     C971465  18.417  10.281   4.751 -0.8793 -0.9823  0.2549
 6497UDC    C1071466  18.343  10.402   4.688  0.7237  0.5628  0.1728
 6497UDC    C1171467  18.387  10.542   4.715  0.1625 -0.0069 -0.1600
 6498UDC     C171468   2.629   0.049  17.074 -1.1034  0.5366 -0.5142
 6498UDC     C271469   2.590  -0.094  17.067 -0.4127 -0.0768 -0.1557
 6498UDC     C371470   2.467  -0.116  17.152 -0.3678 -0.4182 -0.0442
 6498UDC     C471471   2.503  -0.092  17.302  0.4178  0.6114  0.2984
 6498UDC     C571472   2.366  -0.110  17.384  0.2370 -0.4046  1.3198
 6498UDC     C671473   2.369  -0.148  17.528 -0.7325  0.1719 -0.5682
 6498UDC     C771474   2.250  -0.254  17.568 -0.4383  0.3898 -0.7150
 6498UDC     C871475   2.244  -0.242  17.724 -0.2843  0.1422 -0.4434
 6498UDC     C971476   2.154  -0.322  17.820 -0.3761  1.3711  0.3025
 6498UDC    C1071477   2.116  -0.259  17.958 -0.2893  0.5315  0.8531
 6498UDC    C1171478   2.089  -0.108  17.943  0.1449 -0.3001 -0.1450
 6499UDC     C171479  19.419   5.165   4.671  0.1064  0.8310 -0.8776
 6499UDC     C271480  19.521   5.060   4.686 -0.4635 -0.2113  1.0129
 6499UDC     C371481  19.587   5.026   4.549  0.5993  0.0137  0.4678
 6499UDC     C471482  19.704   4.924   4.567  0.5282 -0.2591  0.7445
 6499UDC     C571483  19.663   4.779   4.579 -0.0222  0.2927  0.0347
 6499UDC     C671484  19.776   4.675   4.598  0.7170 -0.7106 -0.2622
 6499UDC     C771485  19.723   4.563   4.676 -0.2332 -0.1117 -0.4165
 6499UDC     C871486  19.817   4.466   4.738 -0.2337  1.0038  0.3988
 6499UDC     C971487  19.744   4.364   4.838 -1.6968 -0.3065  1.2892
 6499UDC    C1071488  19.842   4.304   4.939  0.4029 -0.6711 -0.1754
 6499UDC    C1171489  19.922   4.412   5.008 -0.5387 -0.4523 -0.7746
 6500UDC     C171490   1.539   9.022  11.069 -0.1561  0.0291 -1.3525
 6500UDC     C271491   1.641   8.926  11.125  0.0785  0.9360 -0.2857
 6500UDC     C371492   1.757   8.886  11.030 -0.1727  0.0102  0.0328
 6500UDC     C471493   1.854   9.004  11.003 -0.4237  0.1235  0.7833
 6500UDC     C571494   1.955   9.019  11.125  0.1233 -0.4559 -1.7802
 6500UDC     C671495   2.063   9.125  11.125  0.3237 -0.3165  0.6888
 6500UDC     C771496   2.193   9.092  11.199  0.9320  0.2679 -0.4084
 6500UDC     C871497   2.195   8.987  11.312 -1.4009  0.4711 -0.1387
 6500UDC     C971498   2.181   9.072  11.446 -0.3836  0.3962 -0.4757
 6500UDC    C1071499   2.223   8.993  11.574  0.9530  0.2932 -0.5140
 6500UDC    C1171500   2.237   9.076  11.705  0.3398 -0.7187  0.3668
 6501UDC     C171501  13.372  12.116  11.277 -0.1293 -0.5282 -0.0188
 6501UDC     C271502  13.229  12.082  11.255  1.0240  1.7266  0.7091
 6501UDC     C371503  13.127  12.171  11.337 -0.5334 -0.0073 -0.1310
 6501UDC     C471504  12.980  12.133  11.298  0.8730 -0.1588 -0.7377
 6501UDC     C571505  12.855  12.173  11.392  0.0524  0.0098 -0.6482
 6501UDC     C671506  12.710  12.180  11.337  0.8968 -0.3475  0.1019
 6501UDC     C771507  12.622  12.299  11.362 -0.5787 -0.9549  1.1489
 6501UDC     C871508  12.662  12.437  11.300 -0.1236  0.3656  0.0483
 6501UDC     C971509  12.567  12.546  11.346 -1.0624 -1.0080  0.3892
 6501UDC    C1071510  12.576  12.607  11.489 -0.5838 -0.6148  0.4128
 6501UDC    C1171511  12.726  12.638  11.523  0.0562  0.4939 -0.3481
 6502UDC     C171512   5.715  12.520  10.635 -0.0225  0.2619 -0.0221
 6502UDC     C271513   5.821  12.415  10.612  0.7396  0.5467  0.3304
 6502UDC     C371514   5.926  12.451  10.500 -0.9233  0.0452 -0.5500
 6502UDC     C471515   6.002  12.323  10.471 -0.0190  0.1594  0.4360
 6502UDC     C571516   5.978  12.278  10.328 -1.0677  0.1224  0.4084
 6502UDC     C671517   6.065  12.184  10.240 -0.4656 -0.1621 -0.6551
 6502UDC     C771518   6.043  12.191  10.084 -1.1834 -0.1694 -0.0299
 6502UDC     C871519   6.146  12.108  10.000 -0.6602 -0.8062  0.1663
 6502UDC     C971520   6.132  11.955  10.024  1.2524  0.1006 -0.1864
 6502UDC    C1071521   6.004  11.899   9.951  0.4585 -0.5074 -1.1178
 6502UDC    C1171522   5.995  11.750   9.951 -0.3447 -0.9659 -0.4088
 6503UDC     C171523   9.546  15.030  13.166  0.1486  0.6497  0.7823
 6503UDC     C271524   9.514  14.886  13.100  0.2751  0.1566  0.3023
 6503UDC     C371525   9.617  14.854  12.995 -0.2090  1.8241 -0.2028
 6503UDC     C471526   9.734  14.777  13.060 -0.6658 -0.4595  0.5257
 6503UDC     C571527   9.831  14.724  12.966 -0.8453  0.4051 -0.7439
 6503UDC     C671528   9.880  14.809  12.842  0.9960  0.6671 -0.4303
 6503UDC     C771529   9.987  14.755  12.754 -1.5578  0.5217  0.5242
 6503UDC     C871530  10.056  14.849  12.651 -1.2434  0.7740  0.1343
 6503UDC     C971531  10.156  14.782  12.554 -0.1310 -1.1650 -0.3427
 6503UDC    C1071532  10.107  14.673  12.460 -0.2218  1.1455  0.2499
 6503UDC    C1171533  10.208  14.576  12.398  0.5501 -0.6717 -0.4939
 6504UDC     C171534  19.074  15.330   2.444  0.3467  1.5595 -0.7960
 6504UDC     C271535  18.933  15.304   2.389 -0.2470 -0.4887 -0.8891
 6504UDC     C371536  18.884  15.436   2.333 -0.1254  0.0004 -0.7459
 6504UDC     C471537  18.750  15.418   2.259 -0.6269  0.2039  0.1114
 6504UDC     C571538  18.677  15.547   2.212 -1.0263  0.3608  0.5566
 6504UDC     C671539  18.533  15.521   2.170 -0.2996 -0.7602 -0.4702
 6504UDC     C771540  18.516  15.444   2.035  0.0008  0.4614  0.1910
 6504UDC     C871541  18.406  15.333   2.040  0.2634 -0.3416  0.0193
 6504UDC     C971542  18.434  15.231   2.151  0.4334 -0.8267 -1.0833
 6504UDC    C1071543  18.479  15.093   2.099 -0.5570  0.2796  0.0831
 6504UDC    C1171544  18.603  15.093   2.007  0.6291 -0.4228 -0.0047
 6505UDC     C171545  18.952  10.844  18.686  0.4122  0.2498 -0.0412
 6505UDC     C271546  19.077  10.803  18.762  0.1587  0.1818 -0.4045
 6505UDC     C371547  19.192  10.795  18.662 -0.6372  0.3640 -0.7492
 6505UDC     C471548  19.223  10.939  18.621  0.3654 -0.6849  0.3571
 6505UDC     C571549  19.340  10.971  18.531  0.3922 -0.6993 -0.1392
 6505UDC     C671550  19.354  10.883  18.405  0.6051  0.2065 -0.4126
 6505UDC     C771551  19.484  10.895  18.325  0.4528  0.0429 -0.0882
 6505UDC     C871552  19.539  10.768  18.243  0.2123 -0.5846  0.2089
 6505UDC     C971553  19.580  10.653  18.328  0.5646 -0.9349  0.6423
 6505UDC    C1071554  19.652  10.545  18.241  0.1770  0.2243 -1.1250
 6505UDC    C1171555  19.728  10.457  18.340  0.2516 -0.6723  0.2958
 6506UDC     C171556  19.556   5.815  14.286  0.3995  0.2591 -0.1620
 6506UDC     C271557  19.585   5.838  14.136  0.9789 -0.2886 -0.8122
 6506UDC     C371558  19.489   5.777  14.032  0.1455  0.5260 -0.8617
 6506UDC     C471559  19.345   5.827  14.022  0.1324 -0.0938  0.0933
 6506UDC     C571560  19.330   5.962  13.953 -0.0971 -0.0774  0.0407
 6506UDC     C671561  19.189   6.016  13.946  0.3760  0.2556 -0.3151
 6506UDC     C771562  19.198   6.127  13.834 -0.2448  0.8977 -0.2157
 6506UDC     C871563  19.227   6.072  13.703  0.8534  0.1726 -1.6091
 6506UDC     C971564  19.084   6.037  13.655 -0.1460 -0.1285 -0.1256
 6506UDC    C1071565  19.070   5.942  13.542 -0.1888  0.4283  0.0064
 6506UDC    C1171566  18.984   5.819  13.587 -0.3290 -0.1239  0.0945
 6507UDC     C171567  13.984   0.795  16.554  0.2480 -0.4084  0.3296
 6507UDC     C271568  13.981   0.655  16.495 -0.7231 -0.5782 -0.4654
 6507UDC     C371569  14.002   0.653  16.339 -0.1457 -0.6149  0.3771
 6507UDC     C471570  14.141   0.707  16.289 -0.2788  1.0841 -0.5906
 6507UDC     C571571  14.144   0.748  16.142 -0.0529 -1.4898  0.1681
 6507UDC     C671572  14.278   0.794  16.078  1.2287 -0.0478  1.8493
 6507UDC     C771573  14.354   0.667  16.048 -0.8966  0.5086 -0.4430
 6507UDC     C871574  14.506   0.693  16.084 -0.7932  0.7109 -0.0800
 6507UDC     C971575  14.579   0.582  16.006 -0.9755  0.4074 -0.2833
 6507UDC    C1071576  14.670   0.503  16.106  0.1474  0.7328 -0.7968
 6507UDC    C1171577  14.743   0.592  16.205 -1.2185  1.1330  0.5670
 6508UDC     C171578   1.402   7.532  14.071 -1.2721  0.7561 -1.0709
 6508UDC     C271579   1.540   7.476  14.015  0.5583  0.2512  0.9640
 6508UDC     C371580   1.616   7.598  13.963  0.2948 -0.0353 -1.0588
 6508UDC     C471581   1.756   7.566  13.906  0.0975 -0.8868  0.2230
 6508UDC     C571582   1.844   7.493  14.000 -0.3391 -0.2052 -0.5127
 6508UDC     C671583   1.974   7.466  13.927 -1.3097  1.2050 -0.0657
 6508UDC     C771584   2.069   7.385  14.010  0.0998 -0.5615  0.6822
 6508UDC     C871585   2.113   7.435  14.154  0.1990 -0.0117  0.9575
 6508UDC     C971586   2.187   7.344  14.253  0.0918 -0.3265 -0.7711
 6508UDC    C1071587   2.239   7.450  14.348  0.3550 -0.6195 -0.5933
 6508UDC    C1171588   2.135   7.509  14.446  0.4866  0.9599 -0.2810
 6509UDC     C171589   2.036  14.253   1.353 -0.1282 -1.1106  0.6031
 6509UDC     C271590   2.017  14.352   1.474  0.3974  0.0601 -0.7291
 6509UDC     C371591   2.079  14.302   1.600  0.3726  0.0880 -0.6779
 6509UDC     C471592   2.033  14.373   1.732 -0.1573 -0.6668  0.4127
 6509UDC     C571593   1.918  14.303   1.807  0.4666 -0.1985  0.1268
 6509UDC     C671594   1.908  14.372   1.942  0.4453  0.4714  0.6122
 6509UDC     C771595   2.001  14.288   2.040  1.1256 -1.2104  0.7252
 6509UDC     C871596   2.127  14.369   2.082 -0.5647 -0.5689  0.7393
 6509UDC     C971597   2.222  14.326   2.198  0.3273  0.2956  0.2043
 6509UDC    C1071598   2.348  14.404   2.216  0.5252  0.0765 -0.0064
 6509UDC    C1171599   2.448  14.396   2.105  0.1670 -0.2030 -0.3048
 6510UDC     C171600   9.409   4.199  13.714 -1.1339  0.4137 -0.7261
 6510UDC     C271601   9.296   4.096  13.722 -1.0866 -0.1592  0.5250
 6510UDC     C371602   9.270   4.041  13.857 -0.6162 -0.0605  0.3908
 6510UDC     C471603   9.165   3.934  13.831  0.3227 -0.9162 -0.4119
 6510UDC     C571604   9.147   3.812  13.935 -0.6700 -0.3545  0.0262
 6510UDC     C671605   9.020   3.734  13.910  0.5838  0.0105 -0.8061
 6510UDC     C771606   9.015   3.589  13.962  1.1304 -1.0152 -0.0894
 6510UDC     C871607   9.059   3.573  14.110 -0.5269  0.3206  0.6197
 6510UDC     C971608   8.984   3.456  14.170  0.5844 -0.1744 -0.0564
 6510UDC    C1071609   9.051   3.425  14.301 -0.3257  0.8840  2.1156
 6510UDC    C1171610   9.199   3.371  14.283  0.7503 -0.5045  0.4372
 6511UDC     C171611  18.525  19.367  15.210  0.1140  0.3934 -0.0806
 6511UDC     C271612  18.478  19.342  15.065 -0.5137 -0.2256  0.8252
 6511UDC     C371613  18.337  19.274  15.066 -0.3427 -1.0216 -0.8024
 6511UDC     C471614  18.286  19.246  14.919  0.7368 -0.3656  0.1616
 6511UDC     C571615  18.138  19.288  14.886  1.0986  0.9490 -1.4139
 6511UDC     C671616  18.101  19.283  14.734 -0.0573 -0.2547  0.4286
 6511UDC     C771617  17.952  19.302  14.716 -0.4402 -0.1532 -1.4197
 6511UDC     C871618  17.883  19.223  14.599  1.4077 -0.3472 -0.2841
 6511UDC     C971619  17.897  19.072  14.605 -0.3579  0.0592 -0.0161
 6511UDC    C1071620  17.873  18.968  14.503  0.2446  0.4006  0.6071
 6511UDC    C1171621  17.725  18.965  14.470 -0.5007  0.2311 -0.5971
 6512UDC     C171622  13.302   9.160  14.476 -0.9998  0.4536 -0.4057
 6512UDC     C271623  13.283   9.004  14.497  0.0390 -0.7094  0.1785
 6512UDC     C371624  13.141   8.956  14.523 -0.6863  0.4037 -0.3901
 6512UDC     C471625  13.138   8.809  14.551 -0.4712  0.2215  0.1380
 6512UDC     C571626  13.232   8.734  14.456 -0.2306 -0.2749  1.2503
 6512UDC     C671627  13.219   8.581  14.443  0.9910  0.1781  0.6455
 6512UDC     C771628  13.314   8.519  14.336  0.8487 -0.6040 -0.3699
 6512UDC     C871629  13.337   8.371  14.331  0.2778  0.5315 -0.2249
 6512UDC     C971630  13.440   8.333  14.222 -1.0962  0.9942  0.0045
 6512UDC    C1071631  13.369   8.332  14.079  0.9144 -0.1479 -0.6363
 6512UDC    C1171632  13.226   8.269  14.071 -0.0458  1.2618  0.4280
 6513UDC     C171633   2.247   9.344  10.485 -0.3721 -0.5086 -0.5132
 6513UDC     C271634   2.295   9.203  10.519  1.3300  0.1415 -0.9721
 6513UDC     C371635   2.333   9.152  10.667 -0.4032  1.0976  0.1368
 6513UDC     C471636   2.215   9.128  10.771 -0.0684 -0.8324 -0.1696
 6513UDC     C571637   2.118   9.251  10.799  0.6342  0.3941  0.8404
 6513UDC     C671638   2.139   9.372  10.896 -0.5191  0.7593 -0.3933
 6513UDC     C771639   2.007   9.441  10.908 -0.3328 -1.4333  0.7970
 6513UDC     C871640   2.010   9.593  10.894  0.4890 -0.1882 -0.4076
 6513UDC     C971641   2.079   9.602  10.761  0.7795 -0.2176  0.9860
 6513UDC    C1071642   2.060   9.737  10.685 -0.4141 -0.4190  0.0421
 6513UDC    C1171643   2.091   9.708  10.535  0.1478 -1.0538 -0.3153
 6514UDC     C171644  15.373   2.972   2.085  0.4875  0.6894  0.3754
 6514UDC     C271645  15.455   3.089   2.035  0.2669  0.7477  0.0500
 6514UDC     C371646  15.361   3.192   1.983  0.5942 -0.0392  0.6891
 6514UDC     C471647  15.262   3.159   1.869 -0.0645  0.4475 -0.4899
 6514UDC     C571648  15.153   3.257   1.837 -0.6448 -0.3694 -0.7673
 6514UDC     C671649  15.104   3.207   1.706  0.4744  0.3057 -0.7679
 6514UDC     C771650  15.027   3.073   1.704  0.6334  0.7023 -1.0087
 6514UDC     C871651  14.985   3.033   1.564  0.3525  0.4971  0.1865
 6514UDC     C971652  15.097   2.949   1.518  0.2648  0.2034  0.4018
 6514UDC    C1071653  15.222   3.017   1.453  0.6856 -0.2039 -0.5340
 6514UDC    C1171654  15.331   2.927   1.394  0.3556 -0.6534  1.0192
 6515UDC     C171655   4.975   9.974   5.454  0.1939  0.3970 -0.8162
 6515UDC     C271656   4.833   9.961   5.395 -0.0790  0.3356  0.4523
 6515UDC     C371657   4.731   9.982   5.507 -0.1658  0.6891  0.8359
 6515UDC     C471658   4.738  10.112   5.590  0.9791 -0.2040  0.2069
 6515UDC     C571659   4.680  10.234   5.515 -0.2564 -0.6597  0.7560
 6515UDC     C671660   4.764  10.362   5.506  1.5232 -1.1941  1.0895
 6515UDC     C771661   4.795  10.405   5.647  0.3236 -0.0200 -0.1908
 6515UDC     C871662   4.837  10.553   5.658 -1.0611  0.7025 -0.2909
 6515UDC     C971663   4.829  10.615   5.798 -0.6230 -0.9835 -0.0702
 6515UDC    C1071664   4.846  10.763   5.807  0.3163 -0.6381  0.7374
 6515UDC    C1171665   4.715  10.839   5.767  0.1165 -0.2592  0.7455
 6516UDC     C171666  16.946   4.272   5.485 -0.0075  0.7205  0.4359
 6516UDC     C271667  16.950   4.424   5.487  0.2472 -0.4733 -0.6107
 6516UDC     C371668  17.000   4.479   5.342 -0.1242 -0.3781 -0.8132
 6516UDC     C471669  17.015   4.634   5.348  0.9781 -0.0254  0.1990
 6516UDC     C571670  16.887   4.709   5.394  0.2463 -0.5849 -1.0599
 6516UDC     C671671  16.767   4.673   5.301 -0.5337  0.0275 -0.0510
 6516UDC     C771672  16.706   4.795   5.240 -0.0701  0.5028  0.8942
 6516UDC     C871673  16.762   4.829   5.106  0.1682  0.6789 -0.0817
 6516UDC     C971674  16.732   4.966   5.048  0.2322 -0.7819  1.5048
 6516UDC    C1071675  16.600   4.962   4.968  0.0863 -0.8969 -0.0618
 6516UDC    C1171676  16.549   5.089   4.907 -0.1588  0.2896  1.2703
 6517UDC     C171677  12.962   1.485   6.148  0.5246 -0.5395 -0.5116
 6517UDC     C271678  13.105   1.445   6.109  0.5434 -0.5703  0.4789
 6517UDC     C371679  13.143   1.424   5.958  0.2898  0.8709 -0.2617
 6517UDC     C471680  13.281   1.349   5.973  0.3483 -0.1168 -0.4778
 6517UDC     C571681  13.288   1.215   6.047  0.0694  0.3561 -0.6981
 6517UDC     C671682  13.182   1.112   6.005  0.8309 -0.4404 -0.2965
 6517UDC     C771683  13.187   0.987   6.093 -0.8508 -0.6859 -0.1290
 6517UDC     C871684  13.075   0.885   6.092  0.8556  0.4781 -0.5040
 6517UDC     C971685  13.069   0.736   6.138 -0.2163 -0.1680  0.6332
 6517UDC    C1071686  12.944   0.689   6.222 -0.8520 -0.4527  1.1150
 6517UDC    C1171687  12.917   0.539   6.242  0.5881 -0.3275 -1.3067
 6518UDC     C171688  12.240  10.792  14.578 -0.3377  0.6275  0.2578
 6518UDC     C271689  12.382  10.753  14.530 -0.3357  0.5677  0.3224
 6518UDC     C371690  12.455  10.663  14.628  0.1479 -0.8374 -0.3788
 6518UDC     C471691  12.607  10.678  14.613  0.3179  0.4988  0.0221
 6518UDC     C571692  12.671  10.643  14.476  0.1554  0.4962  1.4548
 6518UDC     C671693  12.767  10.534  14.451  0.4337  0.3684  0.7426
 6518UDC     C771694  12.772  10.489  14.305  0.7046 -0.0934  0.7859
 6518UDC     C871695  12.838  10.355  14.282  0.7134  0.3350  0.8421
 6518UDC     C971696  12.844  10.333  14.126  0.9669 -0.2826 -0.2283
 6518UDC    C1071697  12.924  10.445  14.055 -0.3654  0.4043 -0.4655
 6518UDC    C1171698  12.844  10.575  14.015  0.1511 -1.1463 -0.5868
 6519UDC     C171699   4.554  15.321   1.665 -0.7773  0.3655  0.0902
 6519UDC     C271700   4.559  15.204   1.556  0.2068  0.6804 -0.9052
 6519UDC     C371701   4.511  15.065   1.593  0.3369  1.1119 -0.1113
 6519UDC     C471702   4.503  14.975   1.471 -0.2919  1.3303 -0.9008
 6519UDC     C571703   4.383  14.880   1.500  0.0724 -0.4052  0.1504
 6519UDC     C671704   4.284  14.860   1.384 -0.7899 -0.9442 -0.2758
 6519UDC     C771705   4.142  14.824   1.431  0.5043 -0.4699 -0.4593
 6519UDC     C871706   4.077  14.960   1.474  0.0395 -0.7739  0.4330
 6519UDC     C971707   3.983  14.952   1.595 -0.2793  0.3437 -0.2804
 6519UDC    C1071708   3.951  15.090   1.656  1.0311  0.1907  0.9884
 6519UDC    C1171709   3.825  15.167   1.598 -0.8004 -0.0012 -1.2262
 6520UDC     C171710   9.831  15.906   5.961  0.5281 -0.8174 -0.0865
 6520UDC     C271711   9.815  15.999   5.831 -0.4801 -0.3929 -0.3528
 6520UDC     C371712   9.676  15.995   5.764 -0.3121 -0.1626  0.6949
 6520UDC     C471713   9.639  15.848   5.747  1.0172  0.2472 -0.9646
 6520UDC     C571714   9.496  15.810   5.710  0.2131  0.5277  0.6444
 6520UDC     C671715   9.421  15.723   5.818 -0.2852 -0.5343  1.0470
 6520UDC     C771716   9.275  15.714   5.774 -1.0514 -0.6520 -1.4174
 6520UDC     C871717   9.255  15.627   5.651  1.2336 -0.3258 -0.4565
 6520UDC     C971718   9.328  15.494   5.664  0.6487  0.4004 -0.7233
 6520UDC    C1071719   9.288  15.388   5.768  0.7013 -0.5928 -0.8066
 6520UDC    C1171720   9.389  15.300   5.848  1.2644 -0.7663  0.1104
 6521UDC     C171721   7.980  14.158   8.996 -0.2969  0.0584  0.3272
 6521UDC     C271722   8.075  14.138   9.108 -0.0511 -1.4737 -0.1968
 6521UDC     C371723   8.197  14.232   9.074 -0.7558 -1.1506 -0.4436
 6521UDC     C471724   8.324  14.265   9.154  0.6058  0.6290 -0.5211
 6521UDC     C571725   8.437  14.363   9.100  0.0191 -0.3590 -0.6666
 6521UDC     C671726   8.535  14.321   8.993  0.6729  0.5871 -0.9260
 6521UDC     C771727   8.674  14.317   9.046  0.2096  0.0182  0.1133
 6521UDC     C871728   8.731  14.452   9.095 -0.0672 -0.7549 -0.2920
 6521UDC     C971729   8.878  14.457   9.149 -0.4901  0.2980  0.3759
 6521UDC    C1071730   8.915  14.407   9.293  0.2125 -0.0677 -0.4136
 6521UDC    C1171731   9.065  14.420   9.329 -0.0556 -0.4524  0.2399
 6522UDC     C171732   2.245   4.292   7.165 -0.5767  0.1264  1.2030
 6522UDC     C271733   2.222   4.137   7.195  0.5361 -0.0952  0.2787
 6522UDC     C371734   2.358   4.075   7.191 -0.6491  0.3746  0.2658
 6522UDC     C471735   2.377   3.957   7.280  0.4157  0.5457 -0.9954
 6522UDC     C571736   2.263   3.856   7.263  0.3807  0.1175 -0.1475
 6522UDC     C671737   2.285   3.756   7.150 -1.3976 -0.1840 -0.1393
 6522UDC     C771738   2.155   3.687   7.126  0.1361  0.0602  0.5500
 6522UDC     C871739   2.077   3.750   7.004  1.0054 -0.4416  0.0408
 6522UDC     C971740   1.929   3.698   7.019 -0.8874  0.1397  0.2913
 6522UDC    C1071741   1.852   3.799   7.101  1.8847  0.0194 -0.7597
 6522UDC    C1171742   1.713   3.731   7.096  0.4467 -0.3853  0.0827
 6523UDC     C171743  14.488   0.849  15.524 -0.1867  1.2322  0.2198
 6523UDC     C271744  14.519   0.908  15.657 -0.1689  0.0136  0.2300
 6523UDC     C371745  14.599   0.843  15.767 -1.0981  0.9948 -0.6034
 6523UDC     C471746  14.621   0.936  15.889  0.2074 -0.5555 -1.0614
 6523UDC     C571747  14.550   1.070  15.895 -0.4471 -0.8796 -0.0711
 6523UDC     C671748  14.552   1.142  16.033 -0.3845 -0.0013  0.0122
 6523UDC     C771749  14.418   1.207  16.038  0.5516 -0.1769 -0.5610
 6523UDC     C871750  14.409   1.316  15.935  0.0587 -0.0475 -1.0291
 6523UDC     C971751  14.271   1.393  15.922 -1.0608 -0.8691  0.2928
 6523UDC    C1071752  14.149   1.327  15.849 -0.1827  0.9473 -0.0695
 6523UDC    C1171753  14.067   1.216  15.921 -0.5344 -1.4644 -0.7527
 6524UDC     C171754  12.446  10.434  15.991 -0.6275  0.7218  1.0526
 6524UDC     C271755  12.538  10.439  16.115 -0.1549 -0.1374 -0.8986
 6524UDC     C371756  12.470  10.523  16.225 -0.5704 -0.4970  0.4864
 6524UDC     C471757  12.562  10.555  16.344 -1.0504 -0.0780  1.2921
 6524UDC     C571758  12.515  10.669  16.421 -0.5345  0.8053  0.3154
 6524UDC     C671759  12.568  10.799  16.377 -0.8520  0.3196  0.2706
 6524UDC     C771760  12.473  10.903  16.430  0.4578 -0.6961  0.3652
 6524UDC     C871761  12.325  10.876  16.366 -0.5226  0.1984 -0.5795
 6524UDC     C971762  12.221  10.893  16.480  0.2964 -0.5963 -0.7675
 6524UDC    C1071763  12.188  11.043  16.521  0.3474 -0.1738 -0.0902
 6524UDC    C1171764  12.063  11.058  16.622 -0.6498  0.1245  0.3166
 6525UDC     C171765  13.750   5.458   6.986  0.4410 -0.2403  0.2646
 6525UDC     C271766  13.747   5.306   7.023 -0.0993  0.6687 -0.3063
 6525UDC     C371767  13.800   5.199   6.923 -0.4784  0.2985 -0.3317
 6525UDC     C471768  13.768   5.051   6.950 -0.0973 -0.4450 -0.0668
 6525UDC     C571769  13.801   4.981   6.811 -0.2731 -0.2124 -0.1366
 6525UDC     C671770  13.949   4.967   6.766  0.0896 -0.3916 -0.7052
 6525UDC     C771771  13.990   4.880   6.652  0.5762  1.3441 -0.9031
 6525UDC     C871772  14.136   4.897   6.624 -0.5567  1.9305 -0.7429
 6525UDC     C971773  14.187   4.812   6.505 -0.9750  1.6368  0.7772
 6525UDC    C1071774  14.142   4.660   6.517  0.8883 -1.0210 -0.6060
 6525UDC    C1171775  14.120   4.576   6.394  1.5607 -0.3451  1.0428
 6526UDC     C171776  10.767  11.244  11.785  0.3660  1.2015 -0.1867
 6526UDC     C271777  10.669  11.159  11.867 -0.4926 -0.0940 -0.2341
 6526UDC     C371778  10.703  11.008  11.861  0.3086 -0.0629 -0.7741
 6526UDC     C471779  10.701  10.958  11.715  0.3127  0.9849  0.3209
 6526UDC     C571780  10.732  10.807  11.710 -0.7950  0.0115  0.9749
 6526UDC     C671781  10.600  10.739  11.750  0.7857 -0.3317 -0.5558
 6526UDC     C771782  10.602  10.587  11.750  0.3394 -0.1870  0.9397
 6526UDC     C871783  10.481  10.521  11.816  1.1949  0.4693  1.1600
 6526UDC     C971784  10.463  10.564  11.959  0.0219 -1.0843 -0.2578
 6526UDC    C1071785  10.332  10.541  12.038 -0.2548  1.1619 -0.0418
 6526UDC    C1171786  10.290  10.663  12.120  0.7526  0.2514 -1.1286
 6527UDC     C171787  12.709  10.959   8.770 -0.0491  0.5050 -0.2571
 6527UDC     C271788  12.643  10.891   8.648 -0.0464  0.3338 -1.3274
 6527UDC     C371789  12.528  10.779   8.670 -1.0381 -0.7147 -0.1303
 6527UDC     C471790  12.431  10.771   8.552 -0.1343  0.5404  0.2021
 6527UDC     C571791  12.494  10.769   8.411  1.3197 -0.5987 -0.7059
 6527UDC     C671792  12.488  10.645   8.333 -0.4751  0.0306 -0.2406
 6527UDC     C771793  12.547  10.645   8.189  0.6741  1.1316 -0.0079
 6527UDC     C871794  12.700  10.662   8.170 -0.5474 -0.0085 -1.1860
 6527UDC     C971795  12.733  10.623   8.019  0.7343  0.0902  0.7453
 6527UDC    C1071796  12.873  10.674   7.979 -1.5877 -0.7322 -0.8210
 6527UDC    C1171797  12.979  10.577   7.933  0.2769 -0.2875 -0.8960
 6528UDC     C171798   2.495   8.548  10.190 -0.0045  0.7591 -0.4978
 6528UDC     C271799   2.379   8.517  10.095 -0.7132  0.5651  0.7154
 6528UDC     C371800   2.412   8.414   9.984  0.1422 -0.3963 -0.7442
 6528UDC     C471801   2.491   8.458   9.861  0.1811  0.0043  0.6658
 6528UDC     C571802   2.512   8.356   9.748  0.1710 -0.1874 -0.3197
 6528UDC     C671803   2.630   8.395   9.663 -1.2856  0.1872  1.2612
 6528UDC     C771804   2.596   8.505   9.565  1.1193 -0.8177  0.8250
 6528UDC     C871805   2.719   8.580   9.511 -0.9412 -0.2432  0.3343
 6528UDC     C971806   2.689   8.683   9.403  0.3667  0.7708  0.0376
 6528UDC    C1071807   2.794   8.735   9.307  0.2432 -1.0790 -0.2127
 6528UDC    C1171808   2.737   8.844   9.199 -0.2114  0.1425 -0.3076
 6529UDC     C171809   3.426  14.005  12.716 -0.8901 -0.0882  1.2912
 6529UDC     C271810   3.304  14.087  12.763 -1.0322 -0.4528  0.1671
 6529UDC     C371811   3.341  14.239  12.795  0.0139  0.7591 -0.9570
 6529UDC     C471812   3.230  14.334  12.848 -0.2640 -1.0981 -1.3787
 6529UDC     C571813   3.298  14.472  12.855  0.5777 -0.8231  0.5072
 6529UDC     C671814   3.291  14.534  12.712 -0.1549 -0.3767  0.6226
 6529UDC     C771815   3.362  14.672  12.704 -0.4834 -0.2509  0.3846
 6529UDC     C871816   3.520  14.672  12.680 -0.0251  0.6070  0.4604
 6529UDC     C971817   3.590  14.802  12.690 -0.6639  0.0607 -0.0126
 6529UDC    C1071818   3.738  14.783  12.659 -0.1945 -1.0264 -0.4277
 6529UDC    C1171819   3.817  14.910  12.674  0.7340 -0.1720 -0.0425
 6530UDC     C171820  12.477   7.991  10.182 -1.3012  1.2457 -0.8883
 6530UDC     C271821  12.518   7.889  10.068 -0.4037  0.3983  0.0324
 6530UDC     C371822  12.549   7.953   9.934 -0.5166 -0.1157 -0.2413
 6530UDC     C471823  12.435   7.948   9.834  0.1732  0.1279  0.5929
 6530UDC     C571824  12.479   8.021   9.708  1.1565 -0.1770  0.8675
 6530UDC     C671825  12.635   8.029   9.681  1.3802 -0.2533 -1.3453
 6530UDC     C771826  12.703   8.005   9.545  0.0612  1.3970 -0.9648
 6530UDC     C871827  12.635   8.073   9.424  0.3376  0.0748 -0.4133
 6530UDC     C971828  12.674   8.221   9.404 -0.3668 -0.9737  0.6257
 6530UDC    C1071829  12.813   8.218   9.336 -0.7283 -0.6532  0.4675
 6530UDC    C1171830  12.901   8.347   9.342 -1.0562  0.7298 -0.0856
 6531UDC     C171831   8.839   4.816  16.699 -0.6362 -0.2353 -0.6532
 6531UDC     C271832   8.882   4.726  16.582  0.8562 -0.0284  0.8971
 6531UDC     C371833   8.873   4.575  16.617  0.1013 -0.6525  0.3866
 6531UDC     C471834   8.962   4.514  16.722  0.3638 -0.8361  1.1712
 6531UDC     C571835   8.906   4.380  16.776 -0.1579 -0.7121  0.5436
 6531UDC     C671836   8.758   4.378  16.821  0.0134 -0.2381  0.8375
 6531UDC     C771837   8.696   4.245  16.869 -0.1736 -0.3153 -0.6363
 6531UDC     C871838   8.672   4.220  17.022 -0.4891  0.9802  0.2107
 6531UDC     C971839   8.797   4.174  17.101 -0.3725 -0.4113  0.5422
 6531UDC    C1071840   8.753   4.122  17.237 -0.4159  0.4639  0.6102
 6531UDC    C1171841   8.612   4.159  17.279 -0.6670 -0.7854  0.3836
 6532UDC     C171842  15.636   0.938   3.759  0.4496  0.0046 -0.1834
 6532UDC     C271843  15.523   1.005   3.675 -0.8407 -0.0615  0.4810
 6532UDC     C371844  15.409   0.929   3.598 -0.5812 -0.4460  0.0423
 6532UDC     C471845  15.271   1.001   3.604  0.6101 -0.2318  0.9412
 6532UDC     C571846  15.222   1.011   3.751 -0.5658 -0.0341  0.4155
 6532UDC     C671847  15.144   1.142   3.776 -0.8612 -0.7684  0.0074
 6532UDC     C771848  15.001   1.099   3.783  1.3158 -0.6505 -0.1849
 6532UDC     C871849  14.884   1.200   3.781 -1.0716  0.1977  1.0156
 6532UDC     C971850  14.871   1.289   3.653  0.8489 -0.0409 -0.4377
 6532UDC    C1071851  14.721   1.325   3.633 -0.2998 -0.7391 -0.9098
 6532UDC    C1171852  14.663   1.414   3.743  0.2096  0.2040  0.3667
 6533UDC     C171853   9.994  14.944  11.979 -0.5822  0.6145 -0.5786
 6533UDC     C271854  10.108  14.901  12.071 -0.3304 -0.1745  0.8727
 6533UDC     C371855  10.200  15.011  12.116  0.6351  0.1316  0.9929
 6533UDC     C471856  10.180  15.069  12.263 -0.4384 -0.3849 -0.2228
 6533UDC     C571857  10.054  15.160  12.273  0.2334 -0.7095 -0.2236
 6533UDC     C671858  10.054  15.253  12.402  0.9911 -0.5770  1.2873
 6533UDC     C771859   9.955  15.193  12.502  0.9072 -0.0150  0.8176
 6533UDC     C871860   9.909  15.275  12.621 -0.1659  0.9926  1.1362
 6533UDC     C971861   9.819  15.208  12.727  0.6012  0.0171 -0.9158
 6533UDC    C1071862   9.780  15.307  12.830  0.3777 -0.8511  0.1512
 6533UDC    C1171863   9.673  15.257  12.927  0.8362  0.5791 -0.4486
 6534UDC     C171864  13.251  15.327   6.973  0.4448  0.1145 -0.7147
 6534UDC     C271865  13.271  15.432   6.863  0.3809 -0.3020 -0.1991
 6534UDC     C371866  13.372  15.535   6.903  0.1176 -0.6999 -0.4797
 6534UDC     C471867  13.421  15.628   6.783  0.4187 -0.0327 -0.1014
 6534UDC     C571868  13.523  15.742   6.830 -0.5583 -0.1311  0.1815
 6534UDC     C671869  13.567  15.837   6.714 -0.6719 -0.1118 -0.2051
 6534UDC     C771870  13.695  15.909   6.761  0.8734 -0.2989  0.3094
 6534UDC     C871871  13.700  16.033   6.675 -0.5276 -0.6020 -0.5672
 6534UDC     C971872  13.707  15.995   6.524 -0.0290  0.0691 -1.1142
 6534UDC    C1071873  13.593  16.047   6.435 -0.0928 -0.3055  0.6133
 6534UDC    C1171874  13.654  16.055   6.293  0.5944 -0.1061  0.2701
 6535UDC     C171875  17.857  15.213   5.772 -0.0702 -0.4504  0.2245
 6535UDC     C271876  17.781  15.156   5.882 -0.4975  0.6569 -0.9951
 6535UDC     C371877  17.629  15.185   5.853  0.6591  1.1579 -1.2567
 6535UDC     C471878  17.547  15.106   5.965 -0.2130  0.0692 -0.4769
 6535UDC     C571879  17.410  15.077   5.919 -0.3835 -0.1691 -0.2261
 6535UDC     C671880  17.384  15.100   5.769  0.3802 -0.2164  0.4630
 6535UDC     C771881  17.253  15.013   5.734 -0.6803  0.7821 -0.6897
 6535UDC     C871882  17.206  15.032   5.587 -1.3513 -0.0105  1.1069
 6535UDC     C971883  17.211  15.186   5.554 -0.3801  1.4504 -0.6730
 6535UDC    C1071884  17.087  15.265   5.508 -0.3892 -1.0686 -1.0256
 6535UDC    C1171885  17.013  15.259   5.369 -0.6482  0.4300  0.2011
 6536UDC     C171886  15.834   9.666  15.504  0.3313  0.6829 -0.0607
 6536UDC     C271887  15.767   9.721  15.381  0.0760  0.7102 -0.2503
 6536UDC     C371888  15.802   9.866  15.330  0.7486  1.4147  0.4528
 6536UDC     C471889  15.737   9.966  15.418  1.0020  0.7099  0.2540
 6536UDC     C571890  15.833  10.040  15.500 -0.5134 -0.5880  1.0652
 6536UDC     C671891  15.917  10.139  15.410  0.3604  0.5437  0.2882
 6536UDC     C771892  15.823  10.255  15.367  0.8190  0.2955 -0.4050
 6536UDC     C871893  15.777  10.357  15.472  0.1835 -0.9997  0.5231
 6536UDC     C971894  15.820  10.503  15.462 -1.0680  0.2472  0.0625
 6536UDC    C1071895  15.908  10.543  15.584  1.0916 -0.0311  0.1300
 6536UDC    C1171896  16.041  10.594  15.520 -0.9563 -0.2714  0.0502
 6537UDC     C171897  16.201   6.511  18.792  0.5347 -0.3750  0.1300
 6537UDC     C271898  16.112   6.401  18.735  0.1766 -0.5630 -0.2305
 6537UDC     C371899  15.974   6.407  18.814  0.3581 -0.8087 -0.2421
 6537UDC     C471900  15.918   6.276  18.781 -0.0585  0.5270 -0.8311
 6537UDC     C571901  15.769   6.267  18.813  0.1880 -0.1674 -0.7750
 6537UDC     C671902  15.687   6.387  18.754 -1.2578  0.7328  0.4207
 6537UDC     C771903  15.552   6.415  18.819  0.4443  0.2963  0.5988
 6537UDC     C871904  15.570   6.504  18.939  0.2467  1.0741 -0.6846
 6537UDC     C971905  15.604   6.649  18.893 -0.3078  0.2022  0.5683
 6537UDC    C1071906  15.484   6.739  18.853  0.1155  0.4071 -0.1486
 6537UDC    C1171907  15.482   6.874  18.922  0.0726  0.3775  0.4827
 6538UDC     C171908  14.786  12.156  13.613  0.5447 -0.3288  0.4356
 6538UDC     C271909  14.639  12.199  13.639  0.9345 -0.1641  0.0376
 6538UDC     C371910  14.555  12.095  13.725 -0.4775 -0.1780  0.2214
 6538UDC     C471911  14.409  12.150  13.765  0.2914 -0.2347 -1.5530
 6538UDC     C571912  14.361  12.071  13.888 -0.9265  0.5242  0.9562
 6538UDC     C671913  14.208  12.054  13.885  0.1384 -0.6226  0.0114
 6538UDC     C771914  14.131  12.181  13.879 -0.2464  0.2383  0.2786
 6538UDC     C871915  14.130  12.253  14.009 -0.5501 -0.3004  1.0228
 6538UDC     C971916  14.042  12.378  14.024  0.6510  1.0928  1.5296
 6538UDC    C1071917  13.892  12.340  14.028 -0.2483  0.0167 -0.4957
 6538UDC    C1171918  13.800  12.315  13.908  0.2749 -0.0736 -0.3491
 6539UDC     C171919  18.586  19.365   9.072 -0.3929  1.5306 -1.5912
 6539UDC     C271920  18.632  19.300   9.207  0.4228  0.6608  0.3654
 6539UDC     C371921  18.711  19.389   9.308  0.7515  0.0382 -0.3465
 6539UDC     C471922  18.691  19.540   9.287  0.4998 -0.0924 -0.5276
 6539UDC     C571923  18.762  19.620   9.403 -0.5139 -0.7741  0.5240
 6539UDC     C671924  18.912  19.660   9.394 -0.8659 -0.3346 -0.4828
 6539UDC     C771925  18.990  19.712   9.524  0.0631  0.4910 -0.7354
 6539UDC     C871926  19.141  19.735   9.495  0.3118  0.3442 -0.6155
 6539UDC     C971927  19.226  19.790   9.607  0.8126  0.6128  0.7010
 6539UDC    C1071928  19.379  19.783   9.572 -0.0444 -0.7992  0.1918
 6539UDC    C1171929  19.478  19.800   9.689 -0.1664 -0.0343 -0.4566
 6540UDC     C171930   0.705   7.952   0.558  0.0030 -1.4482  0.4559
 6540UDC     C271931   0.755   7.883   0.689 -0.1023 -0.1773 -0.4711
 6540UDC     C371932   0.773   7.736   0.673 -0.4221 -0.3500  0.7064
 6540UDC     C471933   0.640   7.658   0.663 -0.3393  1.0039  0.8254
 6540UDC     C571934   0.653   7.532   0.573 -0.0534 -0.6343 -0.0185
 6540UDC     C671935   0.528   7.477   0.501 -0.7504  1.0168  1.4196
 6540UDC     C771936   0.575   7.357   0.408  1.4407  0.1493 -0.5672
 6540UDC     C871937   0.465   7.271   0.339 -0.3014 -0.5210  0.1436
 6540UDC     C971938   0.546   7.155   0.289 -0.1435 -0.3367  0.3540
 6540UDC    C1071939   0.655   7.176   0.178 -0.3736  0.5099  0.1611
 6540UDC    C1171940   0.799   7.151   0.221 -0.6568  0.2055  0.2218
 6541UDC     C171941  17.033   6.212   7.454 -0.8355  0.0219  1.9041
 6541UDC     C271942  16.999   6.181   7.597  0.8316  1.2998 -0.2244
 6541UDC     C371943  16.862   6.121   7.631  0.6136 -0.6389 -0.4015
 6541UDC     C471944  16.794   6.113   7.765  0.2226  0.0781 -0.6837
 6541UDC     C571945  16.650   6.052   7.769  0.7650  0.4029 -0.6117
 6541UDC     C671946  16.562   6.116   7.656 -0.4504  0.4575  1.2471
 6541UDC     C771947  16.471   6.220   7.724 -0.0061  0.3473  0.5023
 6541UDC     C871948  16.390   6.286   7.611  0.4253 -0.2198  0.2599
 6541UDC     C971949  16.334   6.415   7.671 -0.3132 -0.7361 -0.1833
 6541UDC    C1071950  16.428   6.539   7.712  0.8621 -0.3475 -0.9159
 6541UDC    C1171951  16.383   6.668   7.795 -0.1740  0.1444  1.1951
 6542UDC     C171952   1.190   8.023  18.033  0.2702 -0.6121  0.1822
 6542UDC     C271953   1.056   8.097  18.044  0.5163 -1.3973  0.4350
 6542UDC     C371954   1.016   8.167  17.910 -1.4129  0.6987 -0.2609
 6542UDC     C471955   0.876   8.233  17.898 -0.2548  0.6690  0.5075
 6542UDC     C571956   0.773   8.134  17.944 -0.2842 -0.3134  1.7258
 6542UDC     C671957   0.626   8.138  17.903  0.6731 -0.5184  0.3447
 6542UDC     C771958   0.550   8.264  17.950 -0.2371  0.0330 -0.5703
 6542UDC     C871959   0.428   8.304  17.875 -0.3584 -0.5120  0.1566
 6542UDC     C971960   0.291   8.279  17.918  1.1862 -0.3295 -0.0601
 6542UDC    C1071961   0.256   8.341  18.052 -0.9446 -0.1015 -0.8459
 6542UDC    C1171962   0.107   8.324  18.086 -0.3743  1.3316 -0.4938
 6543UDC     C171963  14.140  19.150  18.771 -0.2564  0.0861  0.2633
 6543UDC     C271964  14.166  19.061  18.888  0.3107  0.7564  0.3996
 6543UDC     C371965  14.131  19.133  19.016 -0.8655 -0.1982  0.5999
 6543UDC     C471966  14.245  19.155  19.118  0.6247 -1.2781  0.3097
 6543UDC     C571967  14.227  19.056  19.235  0.7697  0.0884  0.9407
 6543UDC     C671968  14.098  19.062  19.312 -0.5728  0.5473 -0.0373
 6543UDC     C771969  14.105  19.204  19.365 -0.5750 -0.1799  0.1162
 6543UDC     C871970  14.008  19.251  19.478 -0.5040  0.0982  1.3756
 6543UDC     C971971  14.002  19.396  19.497 -0.1734  0.2172  0.6020
 6543UDC    C1071972  13.938  19.475  19.381  0.3976 -0.1993 -0.6534
 6543UDC    C1171973  13.966  19.627  19.393 -0.0361 -0.0004  0.2331
 6544UDC     C171974  14.992   0.802   0.831  0.0944  0.6205 -0.4276
 6544UDC     C271975  15.087   0.849   0.942  0.8774 -1.1360  0.8251
 6544UDC     C371976  15.189   0.950   0.894  0.5515 -0.7067 -0.7215
 6544UDC     C471977  15.241   1.011   1.031 -1.3848  1.4890  0.2289
 6544UDC     C571978  15.136   1.030   1.136 -0.2486  0.4489 -0.3696
 6544UDC     C671979  15.189   1.085   1.273 -0.4488 -0.4756 -0.2845
 6544UDC     C771980  15.247   1.230   1.266  0.1501 -0.0480  0.0110
 6544UDC     C871981  15.271   1.273   1.409  1.1203  0.4449  0.2434
 6544UDC     C971982  15.399   1.214   1.464 -0.6665 -0.3109 -1.0714
 6544UDC    C1071983  15.507   1.201   1.361 -1.1960  0.3488  0.1189
 6544UDC    C1171984  15.662   1.200   1.405 -0.3352  0.7981  0.0580
 6545UDC     C171985  15.285   0.031   2.084  0.1963  0.6830  0.8513
 6545UDC     C271986  15.301   0.008   1.929  0.9994 -0.7223 -0.4755
 6545UDC     C371987  15.214  -0.099   1.867  0.3779  1.3700  0.3838
 6545UDC     C471988  15.237  -0.105   1.711 -0.3353 -0.7337 -1.2616
 6545UDC     C571989  15.385  -0.104   1.672  0.1313  1.1375  0.4172
 6545UDC     C671990  15.454  -0.245   1.675 -0.7264 -1.2918 -0.0584
 6545UDC     C771991  15.599  -0.227   1.621  0.2941 -0.3483  0.3063
 6545UDC     C871992  15.680  -0.351   1.618 -0.0864  0.2371  0.1268
 6545UDC     C971993  15.832  -0.338   1.588  0.1658 -0.9170 -0.3679
 6545UDC    C1071994  15.871  -0.324   1.439  1.0972 -0.5382 -0.4012
 6545UDC    C1171995  16.014  -0.323   1.412 -0.3335  0.3109 -0.3053
 6546UDC     C171996   8.663  17.604   4.267  0.7962 -0.1078  0.2856
 6546UDC     C271997   8.651  17.523   4.392  0.4895 -0.1609 -1.0494
 6546UDC     C371998   8.619  17.375   4.372 -0.0776 -0.9810  0.7628
 6546UDC     C471999   8.501  17.352   4.282 -0.3430  0.1591 -0.1196
 6546UDC     C572000   8.500  17.231   4.182  0.5505 -0.9319  0.6114
 6546UDC     C672001   8.376  17.225   4.093 -0.3894  0.2043  0.6860
 6546UDC     C772002   8.256  17.175   4.169 -0.2008 -1.0743 -0.6009
 6546UDC     C872003   8.249  17.027   4.205  0.3051  0.7565 -0.3900
 6546UDC     C972004   8.118  16.986   4.270  0.0661  0.6738 -1.1844
 6546UDC    C1072005   8.119  16.865   4.367 -1.2818  0.6915 -0.2328
 6546UDC    C1172006   7.992  16.818   4.433 -0.8019  0.0965 -0.8055
 6547UDC     C172007   5.371  12.869  10.840  0.2487 -0.4417  0.3549
 6547UDC     C272008   5.238  12.796  10.840 -0.3880  0.6720 -0.4202
 6547UDC     C372009   5.237  12.661  10.753 -0.6568  0.4889 -0.0740
 6547UDC     C472010   5.172  12.663  10.616  0.3037  0.3004  0.2815
 6547UDC     C572011   5.165  12.530  10.538 -0.5522  0.7007 -0.2988
 6547UDC     C672012   5.295  12.441  10.536  0.5783 -0.9877  1.0856
 6547UDC     C772013   5.293  12.370  10.400  0.6707  1.2506 -0.0174
 6547UDC     C872014   5.299  12.466  10.280  0.2052 -0.3491  0.6105
 6547UDC     C972015   5.228  12.433  10.143 -0.1743  0.5486 -0.3378
 6547UDC    C1072016   5.229  12.543  10.037  0.5593  0.0105  0.1962
 6547UDC    C1172017   5.127  12.510   9.934 -0.9654 -0.4541  0.8982
 6548UDC     C172018  13.091  10.615  12.658 -0.7143  0.0417 -0.2174
 6548UDC     C272019  12.977  10.528  12.713 -0.4760 -0.7315 -0.8245
 6548UDC     C372020  13.022  10.453  12.841 -0.4215 -0.0329 -0.4628
 6548UDC     C472021  13.144  10.516  12.917  0.3627  0.4376 -0.9418
 6548UDC     C572022  13.099  10.640  12.995 -0.2782  0.3016 -0.0752
 6548UDC     C672023  13.204  10.743  13.031 -1.1215 -0.0756  0.5872
 6548UDC     C772024  13.298  10.700  13.143 -0.4185  0.7860 -0.2156
 6548UDC     C872025  13.407  10.802  13.155 -0.1090  0.0101 -0.3447
 6548UDC     C972026  13.479  10.824  13.020  0.4149  0.4638  0.1891
 6548UDC    C1072027  13.594  10.721  12.998 -0.7331 -1.0150 -0.4281
 6548UDC    C1172028  13.685  10.714  12.873  0.6095  0.3251 -0.4142
 6549UDC     C172029   4.554  12.718   0.822 -0.7196  0.6072 -0.7009
 6549UDC     C272030   4.508  12.704   0.685 -0.1159 -0.2480  0.0150
 6549UDC     C372031   4.579  12.827   0.615 -0.9201 -0.4577  0.5894
 6549UDC     C472032   4.569  12.817   0.463  0.2691 -0.1569  0.4438
 6549UDC     C572033   4.574  12.944   0.372  0.0738 -0.5259 -1.1883
 6549UDC     C672034   4.688  13.038   0.390  0.2741 -0.7056  0.3916
 6549UDC     C772035   4.824  12.969   0.384 -0.2172  0.2140  0.0374
 6549UDC     C872036   4.944  13.066   0.377 -0.0278 -0.0234 -0.0846
 6549UDC     C972037   4.965  13.188   0.460 -0.6987  0.5320 -0.2623
 6549UDC    C1072038   5.106  13.237   0.461  0.2917  0.2407 -0.1536
 6549UDC    C1172039   5.103  13.386   0.497  0.5781 -0.8044 -1.2133
 6550UDC     C172040  11.720   9.195  18.398 -0.3021  0.8400  0.4870
 6550UDC     C272041  11.724   9.044  18.438  0.5773 -0.9610 -0.3178
 6550UDC     C372042  11.690   9.040  18.587 -0.4594 -0.9212 -0.4444
 6550UDC     C472043  11.821   9.095  18.650 -0.5409 -0.1498  0.8966
 6550UDC     C572044  11.791   9.191  18.773 -0.9277 -1.1660  0.0706
 6550UDC     C672045  11.791   9.105  18.904 -1.8865 -0.6529 -0.5938
 6550UDC     C772046  11.883   8.993  18.941  0.0834  1.1955  1.8052
 6550UDC     C872047  11.812   8.876  19.021 -0.2088 -0.3092  0.3879
 6550UDC     C972048  11.698   8.809  18.940 -1.0370  0.4270  0.1519
 6550UDC    C1072049  11.774   8.730  18.826 -0.4194  0.0368 -0.8697
 6550UDC    C1172050  11.685   8.697  18.704 -0.7736  0.3296  0.6629
 6551UDC     C172051  12.280   8.979   2.242  0.2700 -0.4951 -1.0927
 6551UDC     C272052  12.414   8.926   2.281 -0.2994 -0.0506  1.1069
 6551UDC     C372053  12.520   9.041   2.272  1.2919  0.6463  0.5822
 6551UDC     C472054  12.660   9.004   2.228 -1.1273 -0.6469 -0.6161
 6551UDC     C572055  12.755   9.125   2.203  0.0366  0.7660 -0.3672
 6551UDC     C672056  12.727   9.174   2.066  1.1435 -0.2827  0.3041
 6551UDC     C772057  12.793   9.304   2.034  0.4922  0.3589 -0.4187
 6551UDC     C872058  12.943   9.289   1.984  0.0647  0.2895 -0.2076
 6551UDC     C972059  13.028   9.406   2.009 -0.1761 -0.6192 -0.4262
 6551UDC    C1072060  13.184   9.395   2.012  0.2210  0.0280 -0.5300
 6551UDC    C1172061  13.221   9.251   1.966  0.5939  0.0863 -0.8944
 6552UDC     C172062   2.431  13.449  16.490 -0.9652 -0.2360  0.1599
 6552UDC     C272063   2.474  13.425  16.640 -0.1395  1.4602 -0.6846
 6552UDC     C372064   2.349  13.413  16.730  0.7090 -0.0549 -1.0774
 6552UDC     C472065   2.234  13.516  16.716 -0.5151  0.3344 -0.6148
 6552UDC     C572066   2.118  13.467  16.803 -0.0004 -0.5159 -0.2857
 6552UDC     C672067   1.992  13.557  16.800  0.3490 -0.6357 -0.4507
 6552UDC     C772068   2.017  13.703  16.811 -0.6579 -0.8193  0.3472
 6552UDC     C872069   1.910  13.759  16.904  0.8456 -0.1698  0.4357
 6552UDC     C972070   1.766  13.715  16.860 -1.4554 -0.0370 -0.0423
 6552UDC    C1072071   1.658  13.762  16.959  0.2796 -1.2728 -1.0304
 6552UDC    C1172072   1.514  13.775  16.904  0.6577 -0.1571  0.7460
 6553UDC     C172073   0.824   2.171   0.327 -0.0804 -0.8020 -1.1012
 6553UDC     C272074   0.901   2.043   0.314  0.5461 -0.1490 -0.4937
 6553UDC     C372075   0.844   1.910   0.378 -0.0332  0.2900 -0.0138
 6553UDC     C472076   0.945   1.787   0.369 -1.0763  0.3555  0.0977
 6553UDC     C572077   0.898   1.661   0.443  0.6917  0.9123  0.0584
 6553UDC     C672078   1.011   1.560   0.463  0.3887 -0.1910  0.7150
 6553UDC     C772079   0.968   1.411   0.493  0.2193 -0.8756 -0.8167
 6553UDC     C872080   0.891   1.349   0.382 -0.8214 -0.1113  0.8521
 6553UDC     C972081   0.817   1.222   0.412  0.6990  0.7243  0.9389
 6553UDC    C1072082   0.760   1.182   0.275  0.6605  0.2877 -0.0061
 6553UDC    C1172083   0.669   1.055   0.292  0.3804  0.3972 -0.2443
 6554UDC     C172084  17.494  14.487  11.518 -0.4365  0.0289 -0.1677
 6554UDC     C272085  17.602  14.482  11.414  0.2214 -1.0217 -0.7955
 6554UDC     C372086  17.620  14.599  11.320 -0.4619 -0.4747  0.4866
 6554UDC     C472087  17.759  14.600  11.254  0.1771  0.8023  0.7263
 6554UDC     C572088  17.758  14.688  11.122 -0.4029 -0.2806  0.4287
 6554UDC     C672089  17.666  14.650  11.007 -1.0623  0.4224  1.3883
 6554UDC     C772090  17.666  14.728  10.871 -0.1819  0.3301  0.0738
 6554UDC     C872091  17.810  14.731  10.821  0.4644 -0.1156  0.0819
 6554UDC     C972092  17.843  14.840  10.716 -0.2499 -0.7354  0.5248
 6554UDC    C1072093  17.994  14.883  10.717  0.2003  0.3580 -0.6536
 6554UDC    C1172094  18.085  14.765  10.656 -0.5138 -1.4297  0.4029
 6555UDC     C172095  14.751   2.689   8.196  0.0312 -0.0949  0.9881
 6555UDC     C272096  14.716   2.643   8.335 -0.0878 -1.2216 -0.5260
 6555UDC     C372097  14.612   2.751   8.370  0.3914  0.3457 -0.2335
 6555UDC     C472098  14.556   2.734   8.514 -0.1724  0.2661  1.0497
 6555UDC     C572099  14.417   2.795   8.514  0.6685  0.6322  0.3625
 6555UDC     C672100  14.387   2.888   8.632  0.2333  0.3233 -0.6802
 6555UDC     C772101  14.243   2.922   8.665  1.6256  0.5691 -0.4045
 6555UDC     C872102  14.168   2.971   8.542 -0.1111  0.0550 -1.8294
 6555UDC     C972103  14.019   2.996   8.578 -0.6750  0.4691  0.4738
 6555UDC    C1072104  13.933   2.864   8.588 -0.5808  0.3350 -0.3234
 6555UDC    C1172105  13.880   2.838   8.728 -0.1413 -0.0973  0.1313
 6556UDC     C172106  19.422   8.242   2.407 -0.0198  1.0555  0.3058
 6556UDC     C272107  19.343   8.361   2.472  0.9931  0.4598 -0.8232
 6556UDC     C372108  19.418   8.493   2.457  0.1074 -0.0583 -0.0238
 6556UDC     C472109  19.320   8.608   2.423 -1.6088  0.0567 -0.1548
 6556UDC     C572110  19.229   8.639   2.541  0.4769  0.0298  0.6247
 6556UDC     C672111  19.081   8.677   2.514  0.2761  0.2164  0.2363
 6556UDC     C772112  18.982   8.575   2.464 -0.1148  0.7425  0.3790
 6556UDC     C872113  19.013   8.503   2.330  0.4889 -1.7143  0.6222
 6556UDC     C972114  18.921   8.379   2.308  0.8527  0.0800  0.5008
 6556UDC    C1072115  18.938   8.332   2.160 -0.4061 -0.2420 -0.2404
 6556UDC    C1172116  19.081   8.287   2.147 -0.9285 -0.2954 -0.6281
 6557UDC     C172117   3.160   1.899  16.486  0.4643  0.2484  0.4021
 6557UDC     C272118   3.105   1.829  16.364  0.4437 -0.3862  1.7723
 6557UDC     C372119   3.204   1.848  16.252 -0.3124  0.7963  0.2023
 6557UDC     C472120   3.182   1.931  16.124  0.8020 -0.2490  0.1256
 6557UDC     C572121   3.149   2.073  16.146 -0.2045 -0.3840 -0.3123
 6557UDC     C672122   3.093   2.144  16.022 -0.4587  0.1438 -1.3201
 6557UDC     C772123   3.074   2.293  16.028  0.3610 -0.7994 -0.1077
 6557UDC     C872124   2.980   2.344  16.133 -0.8344 -0.2546  0.6591
 6557UDC     C972125   2.834   2.321  16.107 -0.4807  0.8407 -2.0014
 6557UDC    C1072126   2.747   2.377  16.220  0.1207 -0.3739 -0.7960
 6557UDC    C1172127   2.615   2.289  16.237  0.3151  0.0687  0.3436
 6558UDC     C172128   5.197  13.299  15.698  0.4956 -0.6607 -0.7985
 6558UDC     C272129   5.126  13.425  15.630  0.7913  0.5631 -1.3535
 6558UDC     C372130   5.219  13.515  15.553  0.9805  0.0069  0.5220
 6558UDC     C472131   5.273  13.439  15.433  0.3617 -0.5024  0.3533
 6558UDC     C572132   5.342  13.555  15.353 -0.7392 -0.6843 -0.1497
 6558UDC     C672133   5.422  13.514  15.227  1.0637  0.3088 -0.3440
 6558UDC     C772134   5.429  13.635  15.140 -1.5135 -0.2144  0.4680
 6558UDC     C872135   5.573  13.710  15.121  0.4806 -0.5088 -0.6711
 6558UDC     C972136   5.660  13.763  15.236 -0.2057 -0.3729 -0.2214
 6558UDC    C1072137   5.787  13.673  15.252 -0.2893  0.5745 -0.2317
 6558UDC    C1172138   5.745  13.533  15.314 -0.4516  0.1690 -0.2897
 6559UDC     C172139  12.856  13.466  14.355 -0.0858  0.8514  0.9040
 6559UDC     C272140  12.731  13.481  14.437 -0.2463  0.3603 -0.9596
 6559UDC     C372141  12.599  13.466  14.356  0.3856 -0.3887 -0.2620
 6559UDC     C472142  12.482  13.534  14.431 -0.0637  0.3802  0.3728
 6559UDC     C572143  12.505  13.679  14.460  0.2437  1.4916 -0.3975
 6559UDC     C672144  12.376  13.744  14.492 -0.0660 -0.1928  0.1368
 6559UDC     C772145  12.395  13.896  14.459 -0.0641 -0.1106  0.1238
 6559UDC     C872146  12.468  13.982  14.568  0.3332  0.2744 -0.1798
 6559UDC     C972147  12.480  14.138  14.554  0.6245  0.0198 -0.1508
 6559UDC    C1072148  12.604  14.204  14.494 -0.4318 -0.7048  0.2249
 6559UDC    C1172149  12.645  14.339  14.563  0.1845  1.0917  0.1795
 6560UDC     C172150   9.644  12.762  10.040  0.0464  0.0903  0.1465
 6560UDC     C272151   9.636  12.633   9.952  0.8187  0.6527 -0.0900
 6560UDC     C372152   9.745  12.518   9.973  0.4643 -0.0337  0.6168
 6560UDC     C472153   9.791  12.411   9.868 -1.2383 -0.5686  0.3648
 6560UDC     C572154   9.678  12.315   9.827 -0.3748  0.4081 -0.1601
 6560UDC     C672155   9.711  12.190   9.732 -0.2867  0.4475 -0.8114
 6560UDC     C772156   9.764  12.217   9.585  0.1039 -0.5150 -0.5759
 6560UDC     C872157   9.742  12.096   9.490  0.5239  0.4598 -0.2777
 6560UDC     C972158   9.844  12.084   9.373 -0.4164 -0.0699  0.1649
 6560UDC    C1072159   9.805  12.120   9.232 -0.8811  0.2043  0.8843
 6560UDC    C1172160   9.902  12.094   9.116  0.3744  0.1868 -0.1525
 6561UDC     C172161   5.112  19.844  14.114 -0.1113 -0.2990 -1.1870
 6561UDC     C272162   5.007  19.830  14.231  0.4378  0.3275 -0.2169
 6561UDC     C372163   5.082  19.811  14.363 -0.6607  0.3359  0.2118
 6561UDC     C472164   5.142  19.671  14.400 -1.1938  0.2879  0.0441
 6561UDC     C572165   5.135  19.667  14.550 -0.8274 -0.9655  0.1705
 6561UDC     C672166   5.232  19.775  14.606 -0.3620  0.6191 -1.3324
 6561UDC     C772167   5.375  19.733  14.641  0.3879  0.2070 -0.2531
 6561UDC     C872168   5.478  19.846  14.643 -0.2937  0.0479 -0.1423
 6561UDC     C972169   5.544  19.886  14.505  0.2798  0.7163  0.4844
 6561UDC    C1072170   5.617  20.019  14.524 -0.5122 -0.2668 -1.0150
 6561UDC    C1172171   5.723  20.026  14.639 -0.2842  0.2196 -1.0160
 6562UDC     C172172  12.560  12.822  10.822 -0.1429  0.1909 -0.2007
 6562UDC     C272173  12.453  12.790  10.931  1.3299 -0.2574  0.9458
 6562UDC     C372174  12.463  12.643  10.982 -0.6353 -0.5661 -0.1011
 6562UDC     C472175  12.344  12.603  11.077 -0.2596  1.1302 -1.6281
 6562UDC     C572176  12.326  12.444  11.085 -0.9904  0.5742  1.0969
 6562UDC     C672177  12.281  12.382  10.954 -1.2374 -0.0461  0.1610
 6562UDC     C772178  12.257  12.230  10.950  0.1255 -0.3359  0.1502
 6562UDC     C872179  12.228  12.179  10.807 -0.3682  0.1890  0.8021
 6562UDC     C972180  12.203  12.025  10.820 -0.0961  0.2821  0.2398
 6562UDC    C1072181  12.141  11.960  10.695  0.0641 -0.7259  0.1951
 6562UDC    C1172182  12.083  11.826  10.712 -0.0599  0.2332  0.0980
 6563UDC     C172183   3.524   6.782  18.218  1.1506 -0.1663 -0.1243
 6563UDC     C272184   3.395   6.724  18.154 -1.5297  1.2740  1.1184
 6563UDC     C372185   3.260   6.774  18.199 -0.8876  0.4607 -0.7267
 6563UDC     C472186   3.137   6.710  18.128  0.9576 -1.5659 -0.3385
 6563UDC     C572187   3.012   6.784  18.179  0.4389 -0.3038  0.2899
 6563UDC     C672188   2.877   6.740  18.127  0.9143  0.4705  1.0617
 6563UDC     C772189   2.835   6.608  18.179 -0.2852  0.0796  0.3501
 6563UDC     C872190   2.696   6.564  18.126  1.1715 -0.2816  0.1727
 6563UDC     C972191   2.588   6.583  18.233 -0.1691  0.6900 -0.0110
 6563UDC    C1072192   2.595   6.479  18.348 -1.0257  0.2638  0.2605
 6563UDC    C1172193   2.500   6.516  18.460 -1.2622 -0.9081  1.0591
 6564UDC     C172194   0.517   2.397  16.209 -0.7323  0.4742  0.4911
 6564UDC     C272195   0.422   2.516  16.194  0.2439 -0.4047 -0.3349
 6564UDC     C372196   0.326   2.537  16.313  0.4253  0.1214 -1.2410
 6564UDC     C472197   0.282   2.677  16.311  0.7279 -1.1731  0.9963
 6564UDC     C572198   0.189   2.693  16.437 -1.2201  0.7718  0.4227
 6564UDC     C672199   0.104   2.821  16.413 -0.0400 -0.1207  0.1936
 6564UDC     C772200  -0.019   2.807  16.317 -1.1448 -0.3960 -0.5044
 6564UDC     C872201  -0.165   2.784  16.367  0.1734  0.1247 -0.6936
 6564UDC     C972202  -0.274   2.874  16.308  0.2280  0.5973 -0.2113
 6564UDC    C1072203  -0.327   2.965  16.418  0.0624  0.2407 -1.2694
 6564UDC    C1172204  -0.395   2.889  16.532  0.2733 -0.9609  0.1474
 6565UDC     C172205   9.048   9.965  11.971 -0.2696  0.3917 -1.0339
 6565UDC     C272206   8.956   9.882  11.875  0.4097  1.0936 -0.5298
 6565UDC     C372207   8.814   9.827  11.913  1.3745 -1.0494 -0.4181
 6565UDC     C472208   8.740   9.743  11.812  0.9820  0.6972  0.5805
 6565UDC     C572209   8.722   9.811  11.669  0.2120  0.0234  0.4463
 6565UDC     C672210   8.685   9.701  11.572  0.1556 -1.1487 -0.1715
 6565UDC     C772211   8.670   9.757  11.423  0.0191 -0.3078 -0.7694
 6565UDC     C872212   8.591   9.670  11.333  0.2500  0.3721 -0.8355
 6565UDC     C972213   8.534   9.745  11.218  0.8491  1.0034  0.1578
 6565UDC    C1072214   8.380   9.742  11.194 -0.7383  0.8050  0.5130
 6565UDC    C1172215   8.281   9.810  11.288  0.5527  0.7739  0.4694
 6566UDC     C172216   1.957  19.346  19.759 -0.5492  0.2499 -1.2097
 6566UDC     C272217   1.883  19.261  19.863  0.7887  0.8497 -0.6634
 6566UDC     C372218   1.755  19.211  19.812 -0.0964  0.8325 -0.2561
 6566UDC     C472219   1.762  19.113  19.696  0.4084  0.0339  1.3618
 6566UDC     C572220   1.626  19.066  19.634 -0.6424  0.3566  0.5386
 6566UDC     C672221   1.625  19.045  19.482 -0.5888 -0.4091  0.9456
 6566UDC     C772222   1.703  19.162  19.417 -0.0297 -0.3244  0.2946
 6566UDC     C872223   1.620  19.288  19.414  0.7945 -0.1802 -0.0922
 6566UDC     C972224   1.475  19.289  19.369  0.5461  0.4207  0.1751
 6566UDC    C1072225   1.462  19.228  19.228 -0.5451 -0.0681 -0.1450
 6566UDC    C1172226   1.343  19.140  19.160 -0.6229 -1.5189 -0.9982
 6567UDC     C172227   5.350  16.304  16.923  0.6856  0.4860  0.1876
 6567UDC     C272228   5.385  16.446  16.977 -0.3646  0.1195 -0.9852
 6567UDC     C372229   5.454  16.477  17.114 -0.7102 -0.8344 -1.7351
 6567UDC     C472230   5.404  16.428  17.252  0.5164  0.1793 -0.2587
 6567UDC     C572231   5.415  16.522  17.373  0.5754 -0.3668  0.3663
 6567UDC     C672232   5.336  16.465  17.491  0.3561 -0.6751 -0.0490
 6567UDC     C772233   5.322  16.532  17.629  0.4713 -0.2681 -0.6663
 6567UDC     C872234   5.235  16.467  17.744 -0.1171  0.1836 -0.2760
 6567UDC     C972235   5.262  16.534  17.884  1.2104 -0.5738  0.0522
 6567UDC    C1072236   5.362  16.648  17.885  0.5760 -0.2361  0.2722
 6567UDC    C1172237   5.425  16.678  18.020  0.1801  0.7531 -0.3707
 6568UDC     C172238   2.131  11.964   4.574  0.5580  0.1580 -0.2828
 6568UDC     C272239   2.276  12.004   4.578  0.2134  0.0953 -0.2047
 6568UDC     C372240   2.344  12.038   4.449 -0.1836  0.6368  0.7889
 6568UDC     C472241   2.447  11.938   4.402  0.3257  0.5061  0.1965
 6568UDC     C572242   2.497  11.933   4.254  0.5317  0.3170 -0.1579
 6568UDC     C672243   2.642  11.985   4.217  1.4578  1.0534  0.4276
 6568UDC     C772244   2.646  11.970   4.061  0.5867  0.4194  0.5016
 6568UDC     C872245   2.785  11.933   4.008  0.4825  0.7130  0.2472
 6568UDC     C972246   2.823  11.988   3.874 -0.8649 -0.9146  0.0530
 6568UDC    C1072247   2.747  11.943   3.746 -0.8528 -0.3438  0.2938
 6568UDC    C1172248   2.593  11.940   3.747 -0.1272 -0.1643  0.2381
 6569UDC     C172249  18.710  11.761  12.273 -0.2853  0.1927 -0.1835
 6569UDC     C272250  18.666  11.625  12.216  1.0271  0.2625 -0.1611
 6569UDC     C372251  18.533  11.638  12.150 -0.9822  0.1200  0.1292
 6569UDC     C472252  18.424  11.633  12.267 -0.1598  0.4413  1.9231
 6569UDC     C572253  18.282  11.675  12.236 -0.4659 -1.2688 -0.1930
 6569UDC     C672254  18.205  11.612  12.126  0.0990  0.3574 -0.0825
 6569UDC     C772255  18.189  11.457  12.131  0.0276  0.2047 -0.5154
 6569UDC     C872256  18.079  11.407  12.028 -1.0237 -0.3586  0.4210
 6569UDC     C972257  18.032  11.267  12.061 -0.5841  1.4030  1.4296
 6569UDC    C1072258  17.917  11.228  11.966 -0.1362  0.9150 -0.8871
 6569UDC    C1172259  17.961  11.207  11.818  0.5829 -0.6179  1.4143
 6570UDC     C172260   0.287  12.274   2.216 -0.0338 -0.0637 -0.7037
 6570UDC     C272261   0.338  12.392   2.130 -0.9111  1.4617  0.1953
 6570UDC     C372262   0.447  12.351   2.033 -0.9544 -0.2936  1.1466
 6570UDC     C472263   0.491  12.468   1.943 -0.6513  0.2701 -0.2338
 6570UDC     C572264   0.608  12.421   1.850  0.3053 -0.7604 -0.6386
 6570UDC     C672265   0.742  12.390   1.915  0.1998  0.1466 -0.2188
 6570UDC     C772266   0.842  12.297   1.832 -0.1812  0.2095  0.2161
 6570UDC     C872267   0.964  12.238   1.908  0.1674  1.2608  0.6285
 6570UDC     C972268   1.048  12.146   1.817  0.7507 -0.1308 -0.3583
 6570UDC    C1072269   1.144  12.054   1.877 -0.3176  0.3321 -0.4075
 6570UDC    C1172270   1.268  12.007   1.794  0.3444  0.3117 -0.0935
 6571UDC     C172271   0.669  14.801   2.121  0.2373 -1.1835  1.4815
 6571UDC     C272272   0.788  14.845   2.208  0.2241  0.2026 -1.0810
 6571UDC     C372273   0.818  14.994   2.201  0.3712  0.7583  0.1185
 6571UDC     C472274   0.756  15.079   2.308  0.6432  0.0949 -0.1386
 6571UDC     C572275   0.748  15.227   2.280 -1.1872 -0.3437  1.4169
 6571UDC     C672276   0.847  15.291   2.183 -0.4120 -0.4505  0.2740
 6571UDC     C772277   0.894  15.429   2.248 -0.3333 -0.5410  0.9370
 6571UDC     C872278   0.963  15.522   2.141 -0.7317 -0.2511  0.0573
 6571UDC     C972279   1.111  15.562   2.171  0.7366  0.9520  0.2579
 6571UDC    C1072280   1.173  15.646   2.060 -0.8203  0.6650  1.7375
 6571UDC    C1172281   1.068  15.748   2.006  0.6322  0.2389 -0.5615
 6572UDC     C172282  15.776  13.565  19.783  0.5927 -0.0344 -0.4106
 6572UDC     C272283  15.917  13.521  19.802 -0.2322  1.2542  0.2947
 6572UDC     C372284  15.975  13.465  19.659  0.4542  0.7124 -0.7819
 6572UDC     C472285  16.120  13.465  19.674 -1.5421 -0.5091 -0.7878
 6572UDC     C572286  16.158  13.369  19.789 -0.8201 -0.5102  0.3589
 6572UDC     C672287  16.133  13.219  19.765  0.5889 -0.1647  0.7435
 6572UDC     C772288  16.166  13.123  19.878 -0.9122 -0.0206  0.6693
 6572UDC     C872289  16.199  12.982  19.831  0.4532  0.6551  1.0292
 6572UDC     C972290  16.262  12.875  19.917  1.1667  0.6604  0.3928
 6572UDC    C1072291  16.367  12.939  20.013 -0.2280  1.0908 -0.2912
 6572UDC    C1172292  16.379  12.860  20.144  0.6294  0.2945 -1.3139
 6573UDC     C172293   6.588   6.668   3.985 -0.3960  1.1308  0.0798
 6573UDC     C272294   6.590   6.820   3.988  0.2284 -0.7348  0.6348
 6573UDC     C372295   6.681   6.880   4.094 -0.1550 -0.6855 -0.6499
 6573UDC     C472296   6.682   7.038   4.101 -0.8983 -1.1874  0.9887
 6573UDC     C572297   6.749   7.099   3.975 -0.4285 -0.2886  0.3557
 6573UDC     C672298   6.645   7.174   3.891 -0.2624 -0.9643 -0.8135
 6573UDC     C772299   6.608   7.098   3.764 -0.0767 -0.9574 -0.1489
 6573UDC     C872300   6.471   7.100   3.718  0.2782  0.8853  0.3178
 6573UDC     C972301   6.376   7.205   3.784 -0.0553 -0.4032  0.7376
 6573UDC    C1072302   6.234   7.182   3.736  1.0096 -0.6969 -0.4842
 6573UDC    C1172303   6.154   7.270   3.834 -0.5690  0.2676  0.5350
 6574UDC     C172304   5.326  15.115   2.236  0.7570 -0.0592 -0.6075
 6574UDC     C272305   5.317  15.257   2.181 -0.1790 -0.3137 -0.3234
 6574UDC     C372306   5.225  15.355   2.258  0.5473  0.2778  1.0387
 6574UDC     C472307   5.219  15.499   2.203 -0.5303 -0.6773  0.5331
 6574UDC     C572308   5.360  15.553   2.190  0.7885  0.1595 -0.3824
 6574UDC     C672309   5.377  15.705   2.158  0.1520 -0.2474 -0.4383
 6574UDC     C772310   5.365  15.713   2.010  0.7095 -0.0732 -0.2537
 6574UDC     C872311   5.474  15.651   1.925 -0.5741 -0.2099 -0.0447
 6574UDC     C972312   5.500  15.711   1.786 -0.1345  0.0836 -0.0748
 6574UDC    C1072313   5.389  15.677   1.685  0.4648  0.2922  0.1744
 6574UDC    C1172314   5.399  15.555   1.585  0.4821 -0.4717 -0.8682
 6575UDC     C172315  11.655  10.244  19.684 -0.8176 -0.2977 -0.2011
 6575UDC     C272316  11.786  10.171  19.695 -0.0027 -1.2884 -1.5890
 6575UDC     C372317  11.839  10.149  19.836 -0.2750 -0.9122 -0.7995
 6575UDC     C472318  11.872  10.278  19.913  1.0764  0.1634  0.4176
 6575UDC     C572319  12.006  10.282  19.991  0.6083 -0.0434  1.1109
 6575UDC     C672320  12.053  10.414  20.060 -0.1561  0.0665  0.0875
 6575UDC     C772321  11.988  10.445  20.195  0.0696 -0.3314  0.2711
 6575UDC     C872322  12.046  10.570  20.262  1.0281 -1.0948 -0.4655
 6575UDC     C972323  12.057  10.671  20.151  0.5218  0.2023 -0.4210
 6575UDC    C1072324  12.108  10.806  20.185  0.5343  0.0150  0.1404
 6575UDC    C1172325  12.244  10.808  20.242 -0.5737 -0.5776 -0.7216
 6576UDC     C172326   3.514   0.288   7.233  0.9003  0.0711 -1.0839
 6576UDC     C272327   3.557   0.262   7.092 -0.1544 -0.4278 -0.3857
 6576UDC     C372328   3.540   0.116   7.038 -0.5484 -0.6691 -0.4477
 6576UDC     C472329   3.566   0.104   6.882 -0.7518  0.2673  0.3218
 6576UDC     C572330   3.714   0.109   6.830  1.1304  0.0755 -1.0090
 6576UDC     C672331   3.752   0.060   6.697 -0.1901  0.3394  0.3450
 6576UDC     C772332   3.866   0.141   6.629 -0.0054 -1.0175 -0.2750
 6576UDC     C872333   3.891   0.111   6.478 -0.5178 -0.7271 -0.0498
 6576UDC     C972334   4.011   0.193   6.422 -0.1977  0.5029  0.2680
 6576UDC    C1072335   4.056   0.165   6.276  0.4496 -0.6805 -0.8160
 6576UDC    C1172336   4.199   0.219   6.238  1.3780 -0.0297 -0.2478
 6577UDC     C172337   0.130  17.949  10.000 -0.8587 -0.6331  0.1391
 6577UDC     C272338   0.086  18.093  10.029 -1.0544  0.8813  0.5344
 6577UDC     C372339   0.013  18.139   9.898  0.0144  0.2296  0.6972
 6577UDC     C472340  -0.032  18.287   9.882 -0.0713  0.4852 -0.2110
 6577UDC     C572341  -0.095  18.330   9.749 -0.2473  0.0132 -1.0365
 6577UDC     C672342  -0.017  18.460   9.720 -1.0246 -0.1675  0.5157
 6577UDC     C772343  -0.044  18.528   9.579 -0.5959 -0.9711 -0.0257
 6577UDC     C872344   0.075  18.617   9.554  0.1456 -0.6499 -0.1340
 6577UDC     C972345   0.090  18.707   9.685  0.7977  0.9375 -0.8917
 6577UDC    C1072346   0.238  18.744   9.692 -0.6351 -1.0188 -0.8111
 6577UDC    C1172347   0.286  18.799   9.558 -0.3923 -0.0268  0.1410
 6578UDC     C172348   3.409  10.868   8.186  0.2879  0.4406 -0.1176
 6578UDC     C272349   3.557  10.846   8.172  0.6199  0.1454  0.4458
 6578UDC     C372350   3.615  10.952   8.078 -0.8189  1.1502  0.8185
 6578UDC     C472351   3.616  11.107   8.114 -0.9612  0.6783 -0.1087
 6578UDC     C572352   3.602  11.187   7.982 -0.2454 -0.7017 -0.1357
 6578UDC     C672353   3.603  11.336   8.016  0.1532  0.0746 -0.1010
 6578UDC     C772354   3.498  11.410   7.931 -0.6445  0.0033  0.5175
 6578UDC     C872355   3.350  11.350   7.928 -1.0806  0.0140 -0.4117
 6578UDC     C972356   3.251  11.458   7.901 -0.7785  0.2644 -0.4256
 6578UDC    C1072357   3.106  11.434   7.918 -1.2164  0.0695 -0.4216
 6578UDC    C1172358   3.071  11.404   8.068 -0.2480  1.1994 -0.0777
 6579UDC     C172359   7.786  18.748  12.955 -0.3370  0.6312  0.1221
 6579UDC     C272360   7.656  18.702  12.886 -0.6397  0.1037 -0.3354
 6579UDC     C372361   7.536  18.764  12.949  0.0084 -0.3330  0.7902
 6579UDC     C472362   7.406  18.709  12.885  1.8920  0.9652 -1.1023
 6579UDC     C572363   7.342  18.591  12.960  0.3272 -0.4301 -0.9276
 6579UDC     C672364   7.214  18.526  12.917 -0.3260 -0.9955 -0.5658
 6579UDC     C772365   7.243  18.457  12.784 -0.6096 -1.0407 -1.0816
 6579UDC     C872366   7.114  18.400  12.728  0.0424  0.1782 -0.8306
 6579UDC     C972367   7.025  18.310  12.806  0.8585 -0.4263  0.4428
 6579UDC    C1072368   6.902  18.266  12.737  1.4421 -0.4214 -0.1679
 6579UDC    C1172369   6.826  18.146  12.797  0.7950 -0.5112 -0.1810
 6580UDC     C172370  16.128   9.656   8.047 -0.6668  0.3375 -1.0310
 6580UDC     C272371  16.274   9.636   8.081  0.1082  1.0235  0.8822
 6580UDC     C372372  16.317   9.618   8.226  0.8210 -0.1998  1.1587
 6580UDC     C472373  16.320   9.478   8.283 -0.7627  1.1739  0.3287
 6580UDC     C572374  16.411   9.461   8.404  0.4925  0.6555  0.0311
 6580UDC     C672375  16.433   9.317   8.446 -0.9220  0.1725  0.7579
 6580UDC     C772376  16.298   9.272   8.508 -0.2187 -0.4520 -1.0223
 6580UDC     C872377  16.259   9.127   8.479 -0.8995 -0.4782 -0.0092
 6580UDC     C972378  16.114   9.083   8.520  0.5744  0.8561 -0.7622
 6580UDC    C1072379  16.106   9.077   8.677 -0.3247  0.6028 -0.0018
 6580UDC    C1172380  15.994   8.981   8.720  0.3817  0.6343  0.5768
 6581UDC     C172381  15.054  12.490  16.450  0.6552 -0.2630 -0.8397
 6581UDC     C272382  14.977  12.469  16.589 -0.4675  0.1156  0.4015
 6581UDC     C372383  14.846  12.556  16.594 -0.2984 -0.3953  0.4866
 6581UDC     C472384  14.725  12.470  16.644  0.2469  1.1467  1.0344
 6581UDC     C572385  14.698  12.360  16.545  0.0096 -0.9907  0.6210
 6581UDC     C672386  14.593  12.423  16.452 -1.1005  0.4376 -0.2171
 6581UDC     C772387  14.450  12.420  16.511 -0.9797 -0.6019  0.3638
 6581UDC     C872388  14.352  12.514  16.430  0.4105  0.3873  0.2819
 6581UDC     C972389  14.299  12.433  16.311 -0.0183 -0.8223 -0.8133
 6581UDC    C1072390  14.195  12.321  16.338  0.1764 -0.4391 -1.0161
 6581UDC    C1172391  14.166  12.230  16.218 -0.3942 -0.0470  0.6728
 6582UDC     C172392  17.909   3.016   6.433 -0.9965 -0.0051 -0.3287
 6582UDC     C272393  17.955   3.164   6.462 -0.9104 -0.2336  0.5986
 6582UDC     C372394  17.938   3.238   6.331 -0.2538 -0.3516 -0.1278
 6582UDC     C472395  17.805   3.213   6.275 -0.0228  0.2518 -0.2781
 6582UDC     C572396  17.734   3.319   6.188  0.1657 -1.6994 -0.4438
 6582UDC     C672397  17.682   3.453   6.245 -0.1387 -1.1501 -0.6622
 6582UDC     C772398  17.550   3.434   6.320 -1.3363  0.1495 -0.1753
 6582UDC     C872399  17.460   3.558   6.311 -0.5731  0.1297 -0.1849
 6582UDC     C972400  17.312   3.519   6.354 -0.4694  1.0893 -0.2628
 6582UDC    C1072401  17.210   3.503   6.247  0.3749  0.7203 -1.3902
 6582UDC    C1172402  17.056   3.509   6.261 -1.0283 -0.4578 -0.7264
 6583UDC     C172403   2.996  18.471  11.210 -0.9713  0.8009  0.2779
 6583UDC     C272404   2.998  18.496  11.060 -0.3837  0.6946  1.4372
 6583UDC     C372405   2.905  18.605  11.007  0.2859  0.0484  0.4251
 6583UDC     C472406   2.920  18.622  10.853  0.5277  0.4569 -0.6610
 6583UDC     C572407   2.795  18.569  10.780 -0.4762 -0.1408  0.8227
 6583UDC     C672408   2.840  18.543  10.636  0.2100  0.4239  0.5860
 6583UDC     C772409   2.755  18.446  10.548 -0.6431  0.6827  1.2833
 6583UDC     C872410   2.841  18.383  10.427 -0.0269  0.7834 -0.4264
 6583UDC     C972411   2.916  18.483  10.339 -0.1869  0.1165  0.0923
 6583UDC    C1072412   3.005  18.416  10.229 -0.0932 -0.1635 -0.2090
 6583UDC    C1172413   3.051  18.535  10.139  0.1895  1.1831 -0.8819
 6584UDC     C172414   4.410  13.052  10.632 -0.3539 -0.7000  0.6387
 6584UDC     C272415   4.371  13.122  10.498 -0.2398  0.2253 -0.3163
 6584UDC     C372416   4.264  13.236  10.493 -0.2509  0.0337 -0.1539
 6584UDC     C472417   4.117  13.206  10.533 -0.6618 -0.5566 -0.0173
 6584UDC     C572418   4.010  13.305  10.488 -0.3103  0.3888 -0.2775
 6584UDC     C672419   3.975  13.411  10.596 -0.7348  0.2271 -0.0912
 6584UDC     C772420   3.861  13.363  10.695  1.2588  0.1740 -0.2585
 6584UDC     C872421   3.740  13.402  10.607  0.5675 -0.1630  1.2200
 6584UDC     C972422   3.615  13.380  10.684 -0.4947 -0.5067  0.0569
 6584UDC    C1072423   3.577  13.245  10.619  0.2288 -0.0606 -0.2287
 6584UDC    C1172424   3.431  13.215  10.674 -0.6483 -0.4560  0.6032
 6585UDC     C172425   5.714  16.284  10.015 -0.4317 -1.4889 -0.1344
 6585UDC     C272426   5.745  16.369  10.140  0.0367 -0.2673 -0.2519
 6585UDC     C372427   5.624  16.352  10.238 -0.6084  0.8189 -1.1766
 6585UDC     C472428   5.637  16.432  10.363  0.3114  0.0642 -0.5939
 6585UDC     C572429   5.557  16.386  10.474  0.7782  0.0881  0.1972
 6585UDC     C672430   5.607  16.240  10.497 -0.6209  0.8860  0.3976
 6585UDC     C772431   5.688  16.210  10.630 -0.0309 -0.5082  0.0104
 6585UDC     C872432   5.715  16.064  10.668  1.2565 -0.3615 -0.6316
 6585UDC     C972433   5.802  16.072  10.788 -0.1253 -0.2174 -1.0556
 6585UDC    C1072434   5.862  15.937  10.836 -0.5483  0.4315 -0.9189
 6585UDC    C1172435   5.754  15.832  10.852  0.5207 -0.5849  0.5528
 6586UDC     C172436  11.785   9.421  13.705  0.0591 -0.1189 -0.6194
 6586UDC     C272437  11.698   9.385  13.590 -0.6284  0.9814 -0.6624
 6586UDC     C372438  11.720   9.486  13.464  1.4263  1.1974 -0.6911
 6586UDC     C472439  11.608   9.445  13.363 -0.3620  0.6370 -0.3981
 6586UDC     C572440  11.465   9.504  13.365 -0.0140  1.4087 -0.0094
 6586UDC     C672441  11.379   9.483  13.490  0.9120 -0.2189  0.5192
 6586UDC     C772442  11.242   9.562  13.475 -0.6440 -0.8305  0.1100
 6586UDC     C872443  11.253   9.715  13.461  1.3451 -0.6900  0.6281
 6586UDC     C972444  11.110   9.774  13.471 -0.0786 -0.3892  0.7732
 6586UDC    C1072445  11.051   9.791  13.612 -0.8483  0.3992  0.0338
 6586UDC    C1172446  10.906   9.837  13.622 -0.1454  0.8742 -1.1006
 6587UDC     C172447   5.091   9.263   3.899  0.0850 -0.4504  0.0920
 6587UDC     C272448   5.005   9.340   3.799 -0.5456 -1.0509  0.4383
 6587UDC     C372449   4.988   9.493   3.805 -0.1968 -0.8466 -0.0514
 6587UDC     C472450   4.892   9.536   3.687 -0.7513 -0.5708 -0.8284
 6587UDC     C572451   4.845   9.679   3.667  0.9489  0.7618  0.1805
 6587UDC     C672452   4.766   9.723   3.540 -1.3123 -0.5328 -0.1782
 6587UDC     C772453   4.818   9.854   3.485  0.6290  0.7076  0.0359
 6587UDC     C872454   4.946   9.840   3.395  0.3383  0.7176 -0.7750
 6587UDC     C972455   4.966   9.924   3.270  0.3025  0.3843  0.2572
 6587UDC    C1072456   5.115   9.944   3.222 -0.3726  1.5459  0.0195
 6587UDC    C1172457   5.126  10.004   3.085  0.1194 -0.3726 -1.1112
 6588UDC     C172458   9.637  18.404  15.700  0.2536  0.2414 -0.2824
 6588UDC     C272459   9.779  18.397  15.765  0.7525 -0.6590 -0.6931
 6588UDC     C372460   9.844  18.270  15.701  0.2407  0.5163  0.1763
 6588UDC     C472461   9.937  18.193  15.791 -0.8734  0.0339 -0.0547
 6588UDC     C572462  10.064  18.281  15.816 -0.5161  0.0982  0.0521
 6588UDC     C672463  10.163  18.284  15.697  0.1195 -0.7548  0.9020
 6588UDC     C772464  10.301  18.294  15.751 -0.4171  1.2592 -1.4292
 6588UDC     C872465  10.400  18.220  15.659  0.1980 -0.1964  0.6451
 6588UDC     C972466  10.547  18.267  15.645  0.4566  0.0397 -0.1451
 6588UDC    C1072467  10.625  18.236  15.515  1.2631  0.7849 -0.2920
 6588UDC    C1172468  10.704  18.105  15.569 -0.0604 -0.5164  0.8193
 6589UDC     C172469   9.072  13.712  18.510  0.4120  0.6275  0.9553
 6589UDC     C272470   8.936  13.700  18.569 -0.3093 -0.4018 -0.3616
 6589UDC     C372471   8.882  13.829  18.609 -0.2046  0.1407 -0.6152
 6589UDC     C472472   8.731  13.826  18.646  0.9890  0.4853 -0.7424
 6589UDC     C572473   8.668  13.962  18.693 -0.4808 -0.4435  0.7068
 6589UDC     C672474   8.524  13.923  18.723  0.1106  0.3109  0.4472
 6589UDC     C772475   8.428  14.039  18.676 -0.7914 -0.0896  0.6914
 6589UDC     C872476   8.301  14.052  18.757  0.7077 -0.2178  0.4843
 6589UDC     C972477   8.282  13.928  18.841  0.2894  0.0819  0.2555
 6589UDC    C1072478   8.254  13.971  18.988 -0.8241  0.3043 -0.4999
 6589UDC    C1172479   8.141  14.073  18.986  0.5614  0.9510 -0.1847
 6590UDC     C172480  18.594  18.202  11.267  0.5737  1.3023  0.1107
 6590UDC     C272481  18.592  18.184  11.417  0.6440 -0.3156 -1.2742
 6590UDC     C372482  18.496  18.069  11.468  0.1117  0.6123 -0.1606
 6590UDC     C472483  18.491  18.075  11.623 -0.5660  1.2172 -1.4320
 6590UDC     C572484  18.628  18.115  11.683 -0.1331 -0.3932 -0.0205
 6590UDC     C672485  18.627  18.200  11.810  0.6438 -1.0676 -0.1428
 6590UDC     C772486  18.550  18.147  11.932  0.6878  1.0653  0.6742
 6590UDC     C872487  18.502  18.246  12.037  0.1724 -0.3818  0.2207
 6590UDC     C972488  18.448  18.167  12.162 -0.4224  1.2507 -0.0841
 6590UDC    C1072489  18.401  18.244  12.282  0.3664  0.0394 -0.1242
 6590UDC    C1172490  18.332  18.378  12.262 -1.5340 -0.0312  0.4049
 6591UDC     C172491  17.403   3.845   1.100 -0.3762 -0.7348  0.6524
 6591UDC     C272492  17.455   3.907   1.232  1.0810  0.0301  0.3007
 6591UDC     C372493  17.375   4.034   1.262 -0.4069  0.3633  1.4493
 6591UDC     C472494  17.392   4.101   1.400  0.4259 -0.3021  0.2776
 6591UDC     C572495  17.263   4.172   1.444 -0.6894  0.4345 -0.5928
 6591UDC     C672496  17.184   4.121   1.566  0.1260 -0.2790 -0.2748
 6591UDC     C772497  17.031   4.148   1.576  0.2874  0.0565 -0.3383
 6591UDC     C872498  16.986   4.067   1.697 -0.7450 -0.9200 -0.1029
 6591UDC     C972499  16.880   4.128   1.787  0.1593 -0.9077  0.4361
 6591UDC    C1072500  16.864   4.062   1.920  0.0679 -0.7083 -0.2053
 6591UDC    C1172501  16.727   3.989   1.930  0.6200  0.0887 -0.5609
 6592UDC     C172502  14.634  17.173   4.260 -0.7903  0.1307 -0.8887
 6592UDC     C272503  14.730  17.234   4.155 -0.2768  0.5942  0.0012
 6592UDC     C372504  14.865  17.290   4.188 -0.7391 -0.1648 -0.6013
 6592UDC     C472505  14.955  17.167   4.223 -1.1978  0.1341 -0.0616
 6592UDC     C572506  14.972  17.115   4.369 -0.1911 -0.4120  0.1823
 6592UDC     C672507  15.042  17.200   4.487 -0.0454  0.7456  0.2728
 6592UDC     C772508  14.950  17.226   4.605 -0.7442  0.9771 -0.8858
 6592UDC     C872509  14.986  17.315   4.729 -1.3540 -0.6561  0.8397
 6592UDC     C972510  14.880  17.330   4.844  1.0200 -0.8844  0.0766
 6592UDC    C1072511  14.936  17.352   4.986  1.1577  0.0147 -1.0387
 6592UDC    C1172512  14.863  17.470   5.060 -0.0345  0.4580  0.0451
 6593UDC     C172513   7.189   9.927  19.991 -0.7629  0.6013 -0.2203
 6593UDC     C272514   7.250   9.954  19.855  1.0750  0.2869 -0.3468
 6593UDC     C372515   7.385  10.015  19.858  1.0574  2.1780 -1.1167
 6593UDC     C472516   7.436  10.067  19.729 -0.5047 -0.4525  0.6937
 6593UDC     C572517   7.543  10.169  19.774  0.6091  0.5308  0.6654
 6593UDC     C672518   7.645  10.116  19.874 -0.1071  0.8275  0.4183
 6593UDC     C772519   7.749  10.016  19.810  0.6288  0.9395  0.8144
 6593UDC     C872520   7.888  10.079  19.845  0.8485 -0.1821  0.8851
 6593UDC     C972521   7.915  10.204  19.753 -0.1997 -0.6070  0.5536
 6593UDC    C1072522   8.052  10.274  19.762 -0.7864 -0.3346 -0.0881
 6593UDC    C1172523   8.176  10.200  19.717 -0.3429  0.5741  0.1171
 6594UDC     C172524  12.390  18.634   9.371 -0.1943 -0.1652 -0.6505
 6594UDC     C272525  12.344  18.499   9.447 -0.0517 -1.3821  1.0303
 6594UDC     C372526  12.397  18.478   9.587  0.4395  0.4145 -0.3270
 6594UDC     C472527  12.361  18.589   9.689 -0.4114 -0.9699 -0.5759
 6594UDC     C572528  12.456  18.623   9.801  0.4880 -0.6402 -0.2608
 6594UDC     C672529  12.408  18.722   9.908  0.8318 -0.4607  0.6383
 6594UDC     C772530  12.477  18.695  10.041 -0.2286  1.0414  0.3178
 6594UDC     C872531  12.455  18.787  10.152  0.4906 -0.8866 -0.6459
 6594UDC     C972532  12.317  18.779  10.222  0.8761  0.5534  0.0680
 6594UDC    C1072533  12.331  18.681  10.343  0.9944 -0.6590  0.4958
 6594UDC    C1172534  12.192  18.618  10.372  0.0112  0.4764  0.2499
 6595UDC     C172535   4.042  15.588  17.292 -0.4598  1.2837 -1.1351
 6595UDC     C272536   4.069  15.661  17.425  0.5370 -1.0779 -0.3102
 6595UDC     C372537   3.952  15.622  17.519 -0.3325 -0.5793 -0.2449
 6595UDC     C472538   3.918  15.747  17.602 -0.3694 -0.2754 -0.6227
 6595UDC     C572539   3.863  15.865  17.519  0.2205 -0.9738 -0.2908
 6595UDC     C672540   3.716  15.849  17.479  0.6788 -0.5615 -0.1502
 6595UDC     C772541   3.676  15.957  17.387  0.0391  0.1627  0.0086
 6595UDC     C872542   3.697  16.104  17.422 -0.1412 -0.0047  0.0582
 6595UDC     C972543   3.645  16.196  17.301 -0.0541 -0.2558 -0.4555
 6595UDC    C1072544   3.740  16.207  17.182  0.1591 -0.0435 -1.1065
 6595UDC    C1172545   3.656  16.201  17.051  0.1424 -0.1713 -0.0583
 6596UDC     C172546  14.755   4.590   0.029 -0.7832  0.0782 -1.0149
 6596UDC     C272547  14.631   4.678   0.016  0.2733  0.8101 -0.6991
 6596UDC     C372548  14.593   4.740   0.149 -0.6116 -0.3037  0.4375
 6596UDC     C472549  14.463   4.824   0.146 -0.2122 -0.3510  0.5554
 6596UDC     C572550  14.438   4.952   0.234 -1.0974  0.1949  1.0161
 6596UDC     C672551  14.506   5.091   0.192  0.2193  0.3072 -0.5484
 6596UDC     C772552  14.508   5.196   0.303 -0.9481  0.5450 -0.0050
 6596UDC     C872553  14.567   5.323   0.250  0.0085 -0.3174  1.1028
 6596UDC     C972554  14.698   5.311   0.165 -0.7479 -0.0396 -0.5225
 6596UDC    C1072555  14.692   5.412   0.048 -0.3521 -0.4001  0.3172
 6596UDC    C1172556  14.686   5.550   0.119  0.4780 -0.9506 -0.4196
 6597UDC     C172557   5.770  10.142  18.576  0.5080  0.7920 -0.4247
 6597UDC     C272558   5.859  10.206  18.475 -0.2857 -0.1495  0.6262
 6597UDC     C372559   5.951  10.319  18.534 -0.1013  0.9761  0.9725
 6597UDC     C472560   6.059  10.376  18.437  0.7440  0.6104  0.6925
 6597UDC     C572561   6.158  10.482  18.498 -0.4277  0.4265  0.7594
 6597UDC     C672562   6.292  10.487  18.421 -1.2359  0.4595  0.4953
 6597UDC     C772563   6.344  10.358  18.346 -1.1633  0.2484 -0.4735
 6597UDC     C872564   6.398  10.408  18.207  0.0238  0.0243 -0.7512
 6597UDC     C972565   6.368  10.288  18.120 -0.0105  0.7535 -0.0399
 6597UDC    C1072566   6.398  10.304  17.966 -0.8141 -0.8623 -0.8390
 6597UDC    C1172567   6.428  10.171  17.897  0.4572  0.4422  0.7759
 6598UDC     C172568   6.537  12.737   3.285 -0.0273 -0.9024 -0.5563
 6598UDC     C272569   6.591  12.619   3.205  0.9793 -0.1677  0.2298
 6598UDC     C372570   6.561  12.489   3.287  0.2002  0.2360 -1.1231
 6598UDC     C472571   6.598  12.364   3.204  0.5831  0.0546 -0.8103
 6598UDC     C572572   6.702  12.402   3.095  0.6593  0.2441 -0.4803
 6598UDC     C672573   6.715  12.328   2.964  0.3910  0.9644  0.5264
 6598UDC     C772574   6.837  12.313   2.867  0.0071 -1.2575 -0.3577
 6598UDC     C872575   6.914  12.433   2.810 -0.6174  0.3487 -1.0955
 6598UDC     C972576   7.018  12.471   2.925  1.4155 -0.0110 -0.2903
 6598UDC    C1072577   7.113  12.357   2.963 -0.2392  0.2154 -0.5454
 6598UDC    C1172578   7.191  12.401   3.087 -0.3353  0.7739  0.5473
 6599UDC     C172579  14.750   5.272  18.877 -0.7899  0.5536  0.3063
 6599UDC     C272580  14.641   5.311  18.977 -0.5474  0.1848 -0.4026
 6599UDC     C372581  14.511   5.364  18.917  0.1143  0.5664  0.4220
 6599UDC     C472582  14.405   5.399  19.025 -1.3833  0.0797  0.7841
 6599UDC     C572583  14.291   5.485  18.974 -1.0421 -0.9178  0.0123
 6599UDC     C672584  14.205   5.569  19.069 -0.6053 -1.2119  0.1583
 6599UDC     C772585  14.074   5.584  19.007  0.2016  0.3383  0.4696
 6599UDC     C872586  13.986   5.486  19.096 -1.0132 -0.8043  0.8220
 6599UDC     C972587  13.848   5.464  19.039  0.1772  0.0327 -0.2467
 6599UDC    C1072588  13.751   5.432  19.148  0.9333 -0.9602  0.2260
 6599UDC    C1172589  13.738   5.539  19.260 -0.0208 -0.6814 -0.2937
 6600UDC     C172590   0.503   6.360  10.092 -0.4106  0.1559  0.4591
 6600UDC     C272591   0.351   6.378  10.084 -0.4827 -0.6733  0.5456
 6600UDC     C372592   0.307   6.489  10.179  0.3272 -0.0371 -0.1967
 6600UDC     C472593   0.167   6.552  10.157  0.2230  1.0021  0.4219
 6600UDC     C572594   0.047   6.467  10.198  0.4610  0.4585  0.0401
 6600UDC     C672595   0.021   6.328  10.135  0.2888  1.2267  0.1630
 6600UDC     C772596  -0.105   6.263  10.170  0.1378  0.0149 -0.3643
 6600UDC     C872597  -0.190   6.243  10.043  0.1246 -0.4166 -0.3064
 6600UDC     C972598  -0.288   6.362  10.037  0.0964  0.3368  0.2394
 6600UDC    C1072599  -0.370   6.379  10.167 -0.2571 -0.0346  0.2079
 6600UDC    C1172600  -0.515   6.328  10.168  0.1580 -0.7900 -0.6728
 6601UDC     C172601   9.492  11.531  13.401 -0.1906 -0.2710 -0.9244
 6601UDC     C272602   9.517  11.660  13.308 -0.1867  0.0283  0.0865
 6601UDC     C372603   9.531  11.608  13.162  0.1770 -0.0832 -0.1455
 6601UDC     C472604   9.468  11.471  13.143  0.4150  0.3361  0.5809
 6601UDC     C572605   9.462  11.415  12.998  0.3537  0.1008  0.1908
 6601UDC     C672606   9.593  11.373  12.931  0.1706 -0.3984  0.1181
 6601UDC     C772607   9.604  11.343  12.785 -0.3864 -0.3773 -0.5264
 6601UDC     C872608   9.731  11.269  12.744 -0.0243  0.0143 -1.0334
 6601UDC     C972609   9.754  11.241  12.596 -0.6273  0.1124 -0.8144
 6601UDC    C1072610   9.693  11.107  12.557  0.6012  0.5066 -0.2398
 6601UDC    C1172611   9.671  11.049  12.412 -0.5550  0.3997  0.1454
 6602UDC     C172612  16.505   9.580  16.107  0.2711  0.4553  0.0114
 6602UDC     C272613  16.620   9.483  16.075 -0.7916  0.3629  0.6686
 6602UDC     C372614  16.643   9.391  16.192 -0.5008  0.2993  1.0189
 6602UDC     C472615  16.702   9.258  16.136  0.4712 -0.8142 -0.7342
 6602UDC     C572616  16.598   9.169  16.069 -0.2766  0.4273  0.8499
 6602UDC     C672617  16.536   9.193  15.936  0.8412 -0.4359  0.2964
 6602UDC     C772618  16.404   9.118  15.932  1.0538 -0.4271  0.6183
 6602UDC     C872619  16.334   9.106  15.798  0.5435 -0.6756  0.5934
 6602UDC     C972620  16.227   9.212  15.771  1.1842 -0.3044 -0.5585
 6602UDC    C1072621  16.164   9.209  15.635  0.8046 -0.0298  1.7049
 6602UDC    C1172622  16.082   9.336  15.608  0.5574 -0.5929 -0.5254
 6603UDC     C172623   2.232  19.986   8.578 -0.4858 -0.0009 -0.0035
 6603UDC     C272624   2.186  19.839   8.601 -0.3330 -0.6975 -0.9285
 6603UDC     C372625   2.051  19.809   8.540  0.7319 -0.3281  0.3477
 6603UDC     C472626   2.003  19.668   8.567  0.8335  0.5371 -0.7239
 6603UDC     C572627   2.053  19.549   8.480  0.0422 -0.0298  0.3198
 6603UDC     C672628   1.938  19.453   8.442 -0.2516 -0.3205  0.6281
 6603UDC     C772629   1.822  19.527   8.377 -0.4510  0.1272  0.0330
 6603UDC     C872630   1.692  19.443   8.364 -0.3080  0.0287 -0.0122
 6603UDC     C972631   1.569  19.536   8.315 -0.0391 -0.3697 -0.2489
 6603UDC    C1072632   1.578  19.584   8.168  1.1552 -0.8341 -0.6338
 6603UDC    C1172633   1.537  19.464   8.082 -0.2325 -0.1215 -0.9321
 6604UDC     C172634  15.388   2.689   0.152  0.8518  1.0155  0.0156
 6604UDC     C272635  15.295   2.674   0.032 -0.7174 -0.9546  0.0535
 6604UDC     C372636  15.334   2.563  -0.072 -0.0513 -0.2392 -0.3108
 6604UDC     C472637  15.209   2.531  -0.159  0.7006  0.0343  0.9068
 6604UDC     C572638  15.097   2.443  -0.095  0.2763  0.7341 -0.2966
 6604UDC     C672639  14.992   2.421  -0.201 -0.6015 -0.8288  0.4714
 6604UDC     C772640  14.866   2.507  -0.218  1.2675  0.2313 -0.5872
 6604UDC     C872641  14.763   2.464  -0.328 -0.8832 -0.2306  0.1795
 6604UDC     C972642  14.786   2.538  -0.468 -0.2919  0.2488 -1.5093
 6604UDC    C1072643  14.677   2.495  -0.573  0.0948 -0.3068 -0.1535
 6604UDC    C1172644  14.545   2.577  -0.570  0.0463 -0.9103 -0.0129
 6605UDC     C172645   8.784  19.783  12.310  1.2038 -1.0906 -0.4325
 6605UDC     C272646   8.922  19.751  12.249 -0.5244 -0.3231 -0.3790
 6605UDC     C372647   9.037  19.767  12.350 -0.7113 -0.0504 -0.3767
 6605UDC     C472648   9.015  19.719  12.495  0.4507  0.2163  0.3979
 6605UDC     C572649   9.072  19.576  12.507 -0.2407  0.1558 -0.2073
 6605UDC     C672650   9.055  19.533  12.652  0.2858 -0.7963 -0.2969
 6605UDC     C772651   8.929  19.453  12.665 -0.6678  0.9233 -0.0253
 6605UDC     C872652   8.879  19.457  12.804  0.3999 -0.4882 -0.9184
 6605UDC     C972653   8.880  19.324  12.879  0.6613 -0.3223  0.2348
 6605UDC    C1072654   8.792  19.209  12.821  0.4325 -0.1769 -0.2227
 6605UDC    C1172655   8.860  19.071  12.782  0.3360 -0.2743 -0.1789
 6606UDC     C172656   7.941  10.436   3.273  1.0089  0.0065 -1.2337
 6606UDC     C272657   7.890  10.294   3.296 -0.9137 -0.5444  0.7171
 6606UDC     C372658   7.759  10.299   3.378 -0.1015 -1.1461  0.2296
 6606UDC     C472659   7.643  10.338   3.290 -1.3319 -0.1455  0.5565
 6606UDC     C572660   7.523  10.329   3.383 -0.0803  0.2232  0.4795
 6606UDC     C672661   7.535  10.190   3.456  0.4946 -0.8234  0.0710
 6606UDC     C772662   7.453  10.192   3.588  0.0183  0.9280  0.3537
 6606UDC     C872663   7.566  10.220   3.692  0.9848  0.7440 -0.1384
 6606UDC     C972664   7.661  10.096   3.708 -0.1144  0.4428  1.1092
 6606UDC    C1072665   7.771  10.083   3.803 -0.0504  0.5702  1.2797
 6606UDC    C1172666   7.746  10.075   3.954 -0.0915  1.0343  0.2243
 6607UDC     C172667   4.069   3.379  10.748  0.0192  1.6131 -0.0992
 6607UDC     C272668   4.114   3.441  10.881  0.9424 -1.1429  0.4188
 6607UDC     C372669   4.266   3.423  10.893  0.0146 -0.2670 -0.6179
 6607UDC     C472670   4.308   3.530  10.997  0.9152  1.5633  0.2258
 6607UDC     C572671   4.243   3.667  10.965  0.2582  0.6621 -0.1903
 6607UDC     C672672   4.298   3.805  11.018  0.0934 -0.2707  0.9906
 6607UDC     C772673   4.211   3.900  11.103 -0.0974 -0.6249 -0.4010
 6607UDC     C872674   4.282   4.038  11.112  1.2006  0.9347 -0.0352
 6607UDC     C972675   4.335   4.097  10.979  0.0747  0.2137 -0.3086
 6607UDC    C1072676   4.405   4.236  11.003 -0.2214  0.2360  0.2551
 6607UDC    C1172677   4.536   4.224  11.079 -0.1097  0.1825  1.0495
 6608UDC     C172678  16.954   3.643   3.470 -0.1840  0.1379 -0.2214
 6608UDC     C272679  16.961   3.532   3.574 -0.2368 -0.0062  0.1908
 6608UDC     C372680  17.094   3.459   3.597  0.2924  1.0500  1.2367
 6608UDC     C472681  17.110   3.396   3.738 -0.1880 -0.4483 -0.3830
 6608UDC     C572682  17.098   3.490   3.861 -0.1618  0.2770  0.4275
 6608UDC     C672683  17.253   3.517   3.885 -0.4650  0.4698 -0.5491
 6608UDC     C772684  17.267   3.640   3.966 -0.6371  1.2131  0.4104
 6608UDC     C872685  17.412   3.685   3.978 -0.2030 -0.5180 -0.0827
 6608UDC     C972686  17.426   3.826   4.037  0.3608 -0.0329  0.0180
 6608UDC    C1072687  17.566   3.879   4.071 -0.4552  0.1957 -0.5697
 6608UDC    C1172688  17.660   3.918   3.959 -1.2441  0.1853 -0.7880
 6609UDC     C172689  16.655  19.823   8.881 -1.1392  0.5193 -0.1546
 6609UDC     C272690  16.721  19.793   9.024  0.8519 -0.8654  0.6313
 6609UDC     C372691  16.640  19.685   9.088  0.0424  0.4021 -0.4301
 6609UDC     C472692  16.719  19.560   9.115  0.5165  0.8079 -0.1103
 6609UDC     C572693  16.809  19.508   9.004 -0.6422 -0.4623  0.6272
 6609UDC     C672694  16.838  19.358   9.019  0.4676 -0.1726  0.2650
 6609UDC     C772695  16.799  19.287   8.891  0.5449 -0.4925  0.6413
 6609UDC     C872696  16.859  19.151   8.870 -0.0512  0.4027 -0.3071
 6609UDC     C972697  16.805  19.084   8.739 -0.3778 -0.5606  1.0459
 6609UDC    C1072698  16.906  18.997   8.659  0.8254 -0.6919 -0.8303
 6609UDC    C1172699  17.030  19.063   8.597  0.8111  0.1529  0.3681
 6610UDC     C172700  13.959  10.243   4.210 -0.4796  0.7270  0.8620
 6610UDC     C272701  13.889  10.283   4.340 -0.3409 -0.1667  0.2815
 6610UDC     C372702  13.972  10.372   4.439  0.1370  1.2176 -0.2236
 6610UDC     C472703  14.113  10.330   4.493  0.4275 -1.4734 -1.8080
 6610UDC     C572704  14.201  10.448   4.547  0.3207  0.1685 -0.7453
 6610UDC     C672705  14.201  10.558   4.448 -0.4390 -0.6127  0.0852
 6610UDC     C772706  14.310  10.549   4.347  0.6119 -0.3287  0.4887
 6610UDC     C872707  14.303  10.654   4.229 -0.4712 -0.3238 -0.7681
 6610UDC     C972708  14.310  10.795   4.281  0.0900 -0.2004  0.0919
 6610UDC    C1072709  14.338  10.916   4.182 -0.6545  0.1457  1.0652
 6610UDC    C1172710  14.484  10.941   4.118 -0.2453 -0.0798 -0.1386
 6611UDC     C172711   7.659  14.236   7.111  0.0853 -0.9163 -0.2055
 6611UDC     C272712   7.665  14.288   6.962 -0.2621  0.4497 -0.3786
 6611UDC     C372713   7.576  14.210   6.870  0.7143  0.5553  0.5255
 6611UDC     C472714   7.461  14.288   6.799 -0.3162 -0.8096  0.5174
 6611UDC     C572715   7.342  14.205   6.754  0.0053 -0.1815 -0.3762
 6611UDC     C672716   7.352  14.137   6.616  0.7227  0.3996  0.7055
 6611UDC     C772717   7.229  14.155   6.525 -0.0959  0.3608  0.2144
 6611UDC     C872718   7.286  14.142   6.382 -0.0030 -0.7513 -0.3235
 6611UDC     C972719   7.232  14.011   6.318 -0.6367  0.2401  1.0046
 6611UDC    C1072720   7.081  14.004   6.347  0.6984 -0.8529  0.7460
 6611UDC    C1172721   7.041  13.880   6.264  0.0370 -0.4528  0.1827
 6612UDC     C172722   2.856   9.355   5.893  0.2932 -1.1099 -0.1836
 6612UDC     C272723   2.939   9.488   5.909 -0.4177 -0.7639  0.2963
 6612UDC     C372724   2.959   9.519   6.060  0.4191  0.3479 -0.3139
 6612UDC     C472725   2.997   9.672   6.074 -0.1126 -0.0219  0.2791
 6612UDC     C572726   3.146   9.683   6.124 -0.2518  0.1569 -0.7934
 6612UDC     C672727   3.221   9.803   6.070  0.8343  0.8645 -0.4566
 6612UDC     C772728   3.352   9.838   6.139  0.2372 -0.0196 -0.4714
 6612UDC     C872729   3.376   9.754   6.269 -0.2970  0.3872  0.5474
 6612UDC     C972730   3.526   9.707   6.294 -0.2078  1.3024  0.6623
 6612UDC    C1072731   3.541   9.559   6.334 -0.8771  0.0427  0.2879
 6612UDC    C1172732   3.463   9.514   6.461  0.2820  0.1099  0.4872
 6613UDC     C172733  11.611  15.474  16.289 -0.6866 -0.1686 -1.2103
 6613UDC     C272734  11.558  15.614  16.250  0.2502 -0.0794  0.7990
 6613UDC     C372735  11.513  15.715  16.359  0.2713 -0.2195  0.0455
 6613UDC     C472736  11.418  15.641  16.454  0.7673  0.5009 -1.4460
 6613UDC     C572737  11.473  15.671  16.600  0.2726  1.6539 -0.0043
 6613UDC     C672738  11.367  15.615  16.706 -0.5491  0.1377 -0.0452
 6613UDC     C772739  11.221  15.672  16.711  1.2957 -0.0691 -1.3230
 6613UDC     C872740  11.127  15.601  16.812  1.3689 -0.8153  0.0088
 6613UDC     C972741  11.080  15.461  16.765  1.4343  0.5403 -0.0710
 6613UDC    C1072742  10.992  15.394  16.877  0.0078 -1.4481 -0.7435
 6613UDC    C1172743  10.954  15.256  16.853 -0.5089  0.2026  0.1895
 6614UDC     C172744  16.683   5.531  11.441 -0.6380 -0.0525 -0.5742
 6614UDC     C272745  16.767   5.542  11.309  1.2535  0.4936 -2.1269
 6614UDC     C372746  16.684   5.522  11.174 -0.2805  1.3399 -1.0833
 6614UDC     C472747  16.769   5.588  11.067 -0.7566  0.8331 -0.2481
 6614UDC     C572748  16.783   5.735  11.102  0.3638  1.1956 -0.2438
 6614UDC     C672749  16.864   5.839  11.012  0.5084  1.3962 -0.3352
 6614UDC     C772750  16.922   5.955  11.092 -0.4982 -0.4151  0.4790
 6614UDC     C872751  17.073   5.950  11.088  0.3398 -0.4016  0.3145
 6614UDC     C972752  17.101   5.939  10.942  0.1136  1.1089 -0.0414
 6614UDC    C1072753  17.251   5.976  10.942 -0.0649 -0.5077 -0.2485
 6614UDC    C1172754  17.259   6.123  10.983 -0.4597  0.0944 -0.0887
 6615UDC     C172755  16.545   3.373   0.996  0.2558  0.0978 -0.5733
 6615UDC     C272756  16.411   3.296   1.045 -0.2547 -0.5688  0.2011
 6615UDC     C372757  16.316   3.280   0.930  0.7657 -1.2110 -0.0419
 6615UDC     C472758  16.214   3.173   0.968  0.0444 -0.9803  0.2634
 6615UDC     C572759  16.102   3.216   1.068  0.2131  0.3189 -0.3339
 6615UDC     C672760  15.995   3.114   1.115  0.9736  0.9609  0.3062
 6615UDC     C772761  16.053   2.993   1.182  0.0059  0.3723 -0.2848
 6615UDC     C872762  15.949   2.879   1.179 -0.1431  1.0290 -0.3973
 6615UDC     C972763  16.021   2.743   1.222  0.5528  0.1990 -0.2430
 6615UDC    C1072764  16.137   2.692   1.135  0.4104 -0.6774  0.9938
 6615UDC    C1172765  16.112   2.549   1.080  1.0122 -0.2852  0.1390
 6616UDC     C172766   0.491  13.371  11.741 -0.4057 -0.2123  0.3285
 6616UDC     C272767   0.517  13.330  11.589 -0.1148 -0.8197 -0.8830
 6616UDC     C372768   0.655  13.362  11.543  0.2790  0.4598 -0.1493
 6616UDC     C472769   0.673  13.331  11.397  0.3998  1.1872  0.4437
 6616UDC     C572770   0.615  13.456  11.333 -1.1914 -1.0579  0.6624
 6616UDC     C672771   0.719  13.574  11.340 -1.1174 -0.1885 -0.4121
 6616UDC     C772772   0.648  13.703  11.294 -0.5611  0.8656  1.4528
 6616UDC     C872773   0.511  13.721  11.361 -1.1123  1.2353 -0.1420
 6616UDC     C972774   0.519  13.751  11.512  0.0332  0.6268  0.4000
 6616UDC    C1072775   0.382  13.777  11.577 -0.2614 -0.5831 -0.7254
 6616UDC    C1172776   0.396  13.798  11.732  0.3418  0.0793 -0.2924
 6617UDC     C172777   3.127  12.726  19.685  0.5959  0.0461  0.7708
 6617UDC     C272778   3.192  12.599  19.636 -1.0482 -0.3195  0.8525
 6617UDC     C372779   3.072  12.525  19.585  0.7293 -0.4557  0.3635
 6617UDC     C472780   3.093  12.380  19.570 -0.4894  0.4214  0.1028
 6617UDC     C572781   2.961  12.298  19.587 -0.4644 -0.1164 -0.4708
 6617UDC     C672782   2.913  12.306  19.740 -1.3114 -0.1679  0.0396
 6617UDC     C772783   2.947  12.185  19.822 -1.0291 -0.0886 -0.3976
 6617UDC     C872784   2.833  12.104  19.897 -0.9295  0.1851  0.7071
 6617UDC     C972785   2.868  11.979  19.974 -0.0154  0.7057  0.1970
 6617UDC    C1072786   2.742  11.909  20.032  0.0009  0.6754 -0.8674
 6617UDC    C1172787   2.719  11.976  20.167 -0.0345 -0.1258  0.1393
 6618UDC     C172788   1.342   2.211   4.351 -0.6744  0.5720 -0.0424
 6618UDC     C272789   1.400   2.199   4.210 -0.3470  0.8151  0.0721
 6618UDC     C372790   1.536   2.113   4.205 -0.0995 -0.1867 -0.9581
 6618UDC     C472791   1.618   2.096   4.078 -0.1376 -0.5364 -1.0925
 6618UDC     C572792   1.714   1.984   4.065 -0.6271  0.1703 -0.0182
 6618UDC     C672793   1.640   1.849   4.064  0.6400  0.0050 -0.3576
 6618UDC     C772794   1.628   1.757   4.186 -0.4730 -0.2673 -0.6018
 6618UDC     C872795   1.553   1.633   4.168 -0.0012  0.6007  0.4078
 6618UDC     C972796   1.568   1.523   4.274 -0.8000  0.1162 -0.6888
 6618UDC    C1072797   1.455   1.422   4.281 -0.3451  0.3547 -0.5884
 6618UDC    C1172798   1.439   1.298   4.185  0.5491 -0.0240  0.4850
 6619UDC     C172799   4.783  19.299   4.499 -0.9403 -0.0523  0.4447
 6619UDC     C272800   4.819  19.168   4.560  0.9407 -1.0552 -0.6361
 6619UDC     C372801   4.927  19.079   4.496  1.1433  0.5472  1.3875
 6619UDC     C472802   5.077  19.117   4.498  0.0233  0.1911 -0.4995
 6619UDC     C572803   5.150  19.007   4.415  0.8871  0.3885 -0.1715
 6619UDC     C672804   5.303  19.024   4.414 -0.4403 -0.5958  0.2172
 6619UDC     C772805   5.388  18.998   4.540  0.4087  0.5085  0.0208
 6619UDC     C872806   5.546  19.010   4.518  1.3709  0.3521  0.4553
 6619UDC     C972807   5.624  18.887   4.460  0.7728  0.6898 -0.4443
 6619UDC    C1072808   5.662  18.761   4.543  0.5560 -0.2840  0.2633
 6619UDC    C1172809   5.785  18.799   4.621  1.2282 -0.2028 -0.9379
 6620UDC     C172810  13.675   4.308   4.932  0.0207  1.3133 -0.2456
 6620UDC     C272811  13.645   4.391   4.812  0.5901 -0.5951 -0.5705
 6620UDC     C372812  13.497   4.430   4.783 -0.6094  0.9736  0.6503
 6620UDC     C472813  13.437   4.519   4.896  0.4405 -0.5045  1.9255
 6620UDC     C572814  13.517   4.649   4.906  0.0423 -0.1589  1.1758
 6620UDC     C672815  13.522   4.702   5.048 -0.3959 -0.8085  0.3080
 6620UDC     C772816  13.636   4.800   5.053  0.3930  0.5201 -0.9727
 6620UDC     C872817  13.624   4.892   5.171  0.2859 -0.8035 -0.8193
 6620UDC     C972818  13.746   4.973   5.199 -0.0794  0.9415 -0.0483
 6620UDC    C1072819  13.725   5.068   5.324  0.1908  0.4481 -0.0012
 6620UDC    C1172820  13.861   5.136   5.355  0.7847  0.3162  1.3823
 6621UDC     C172821  19.089  14.017  19.408 -0.2813 -0.1808  0.4491
 6621UDC     C272822  19.138  13.893  19.324  0.5142  0.0736 -0.3270
 6621UDC     C372823  19.188  13.787  19.426 -0.2381 -0.3452  0.1175
 6621UDC     C472824  19.076  13.729  19.512  0.2660 -0.0950 -0.5428
 6621UDC     C572825  18.993  13.642  19.422 -0.1945 -0.0113  0.0490
 6621UDC     C672826  18.904  13.543  19.493 -0.0895 -0.2795 -0.3019
 6621UDC     C772827  18.960  13.435  19.594  0.6274 -0.4092  0.7658
 6621UDC     C872828  19.075  13.362  19.527  0.6007  0.5799  0.0023
 6621UDC     C972829  19.013  13.249  19.442  0.7689 -0.6009 -0.7273
 6621UDC    C1072830  19.090  13.118  19.457  0.1389  0.4782  0.4465
 6621UDC    C1172831  19.243  13.123  19.422  0.0120  1.2342  0.1550
 6622UDC     C172832   4.538  17.419   2.362 -0.4905  0.1207 -0.2760
 6622UDC     C272833   4.606  17.398   2.230 -0.0537  0.3220  0.9749
 6622UDC     C372834   4.539  17.299   2.136 -0.0883 -1.2079  0.1192
 6622UDC     C472835   4.579  17.311   1.990  0.7261  0.5096  0.7026
 6622UDC     C572836   4.505  17.214   1.904 -0.6285  0.0533 -0.1906
 6622UDC     C672837   4.548  17.198   1.761  1.0284  0.8814 -0.3542
 6622UDC     C772838   4.654  17.092   1.732 -0.0341  0.5853 -0.0747
 6622UDC     C872839   4.743  17.102   1.614 -0.8319 -0.7335  0.2548
 6622UDC     C972840   4.665  17.051   1.491 -0.1549 -0.0976  0.1676
 6622UDC    C1072841   4.685  17.132   1.359 -0.0981 -1.7411  0.5323
 6622UDC    C1172842   4.625  17.272   1.337 -0.5677  0.0302  0.8611
 6623UDC     C172843  15.165   5.071  17.465 -0.0099  0.7079 -0.3284
 6623UDC     C272844  15.140   5.170  17.578 -0.0861 -0.7550 -0.6321
 6623UDC     C372845  15.265   5.237  17.639 -0.0436 -0.4966 -1.1258
 6623UDC     C472846  15.365   5.144  17.702 -1.7188  0.9254 -0.9184
 6623UDC     C572847  15.505   5.211  17.710  0.8151 -1.0780 -0.6092
 6623UDC     C672848  15.465   5.311  17.817 -0.0299 -0.6630  0.2514
 6623UDC     C772849  15.592   5.381  17.848  0.5570 -1.9118  0.1259
 6623UDC     C872850  15.675   5.295  17.943 -0.1925  0.3234  0.7068
 6623UDC     C972851  15.642   5.311  18.092  0.6987 -0.2457  0.2270
 6623UDC    C1072852  15.621   5.460  18.148 -0.1884 -0.2403 -0.6852
 6623UDC    C1172853  15.727   5.564  18.111 -0.2382 -1.2319  0.1016
 6624UDC     C172854  10.146  18.375  17.901  0.1176 -0.6328 -0.1345
 6624UDC     C272855  10.138  18.472  17.775 -0.0068  0.3166  0.4752
 6624UDC     C372856  10.273  18.541  17.757 -0.4624  0.9644  0.6163
 6624UDC     C472857  10.398  18.452  17.725  0.2545  0.4380  0.6281
 6624UDC     C572858  10.512  18.525  17.789 -1.0552 -0.0937 -1.1887
 6624UDC     C672859  10.570  18.449  17.910 -0.0501 -0.2335  0.0649
 6624UDC     C772860  10.680  18.343  17.890  0.1038  0.5562  0.0643
 6624UDC     C872861  10.691  18.238  18.005  0.7235 -0.3986  0.5832
 6624UDC     C972862  10.558  18.161  18.042 -0.5384  0.1983 -0.1891
 6624UDC    C1072863  10.600  18.020  18.089 -0.4102 -0.6052 -0.5113
 6624UDC    C1172864  10.706  18.022  18.200 -1.6271  0.2801 -0.3436
 6625UDC     C172865   0.140  18.128   2.044  0.7866  0.3376 -0.5394
 6625UDC     C272866   0.098  17.993   1.979 -0.6625 -0.6847  0.3471
 6625UDC     C372867   0.170  17.880   2.059 -0.1951 -0.9360 -0.3755
 6625UDC     C472868   0.164  17.750   1.985  0.5907 -0.4897  0.4834
 6625UDC     C572869   0.196  17.618   2.063 -0.1517  0.0897  0.1266
 6625UDC     C672870   0.099  17.508   2.012 -0.1257 -0.1804 -0.7066
 6625UDC     C772871  -0.014  17.492   2.119 -0.0409  0.7284  0.2285
 6625UDC     C872872  -0.073  17.350   2.131 -0.1187 -0.1149  1.2800
 6625UDC     C972873  -0.184  17.369   2.232  0.0976  0.0921  1.2344
 6625UDC    C1072874  -0.161  17.342   2.381 -0.5201 -0.7351  0.5600
 6625UDC    C1172875  -0.254  17.425   2.471 -1.0932 -0.2614 -0.8995
 6626UDC     C172876  16.022   8.096  10.098  0.3790 -0.6532 -0.4409
 6626UDC     C272877  16.065   8.201   9.987 -0.0670  1.0511 -0.0455
 6626UDC     C372878  16.098   8.160   9.840  0.3656 -0.1739  0.4293
 6626UDC     C472879  16.226   8.089   9.815 -0.4584 -1.2190 -0.9655
 6626UDC     C572880  16.221   8.024   9.678  0.1002 -0.6283 -0.0642
 6626UDC     C672881  16.101   7.934   9.642  0.1347  0.4663  0.1082
 6626UDC     C772882  16.094   7.902   9.484 -0.1679 -0.3333 -0.2727
 6626UDC     C872883  16.000   7.785   9.443  0.1583  0.6297 -0.2649
 6626UDC     C972884  15.850   7.810   9.462 -0.1082  0.1185  0.0572
 6626UDC    C1072885  15.802   7.936   9.392 -1.2120 -1.1579  0.3052
 6626UDC    C1172886  15.654   7.969   9.394  1.1806 -0.1208  0.0199
 6627UDC     C172887   5.271  14.627  15.955  0.2976  0.6261  0.3888
 6627UDC     C272888   5.346  14.499  15.926  0.3578 -0.5476 -0.1634
 6627UDC     C372889   5.387  14.433  16.057  0.4211  0.3743 -0.3357
 6627UDC     C472890   5.382  14.280  16.075 -0.5347  0.0864  0.8609
 6627UDC     C572891   5.420  14.239  16.219 -0.0067  0.1525 -1.1492
 6627UDC     C672892   5.557  14.269  16.268 -0.5179 -0.1961  0.0757
 6627UDC     C772893   5.554  14.281  16.415  0.9786 -0.4405 -0.8557
 6627UDC     C872894   5.470  14.400  16.468 -0.3228  0.6892  0.1681
 6627UDC     C972895   5.483  14.381  16.619 -0.5446  0.9198  0.3555
 6627UDC    C1072896   5.406  14.474  16.708 -0.1284  0.1966  1.1303
 6627UDC    C1172897   5.478  14.605  16.744 -0.1114 -0.0507  0.1065
 6628UDC     C172898   3.025   2.997   7.556  0.3717  0.1271  0.2020
 6628UDC     C272899   2.961   2.901   7.657 -0.4292 -0.6759  0.0648
 6628UDC     C372900   2.891   2.776   7.591 -0.4290 -0.2386  0.4401
 6628UDC     C472901   2.789   2.723   7.691  0.5031  0.0016 -0.0360
 6628UDC     C572902   2.828   2.660   7.830  0.7824  0.1810  0.2986
 6628UDC     C672903   2.712   2.568   7.886  0.2507  0.6033 -1.0557
 6628UDC     C772904   2.758   2.510   8.026  0.4489 -0.1776  0.2433
 6628UDC     C872905   2.680   2.392   8.089 -0.3433 -0.0277 -0.5915
 6628UDC     C972906   2.765   2.353   8.214  0.3906 -0.3048 -1.0188
 6628UDC    C1072907   2.705   2.294   8.344  0.6187 -0.4071  0.8137
 6628UDC    C1172908   2.789   2.244   8.462  0.4333 -0.4784 -0.6575
 6629UDC     C172909  14.487  12.287   6.734  0.0563 -0.0938 -0.8801
 6629UDC     C272910  14.411  12.168   6.787  0.8882 -0.3316  0.7552
 6629UDC     C372911  14.264  12.202   6.762 -0.0255  0.6568 -0.0977
 6629UDC     C472912  14.170  12.102   6.833  0.7419 -1.0739 -0.0008
 6629UDC     C572913  14.136  12.115   6.984  0.1235  0.7014 -1.1489
 6629UDC     C672914  14.088  12.255   7.020 -1.0855  0.0961 -1.0520
 6629UDC     C772915  13.947  12.283   7.072 -0.0233  0.2410  0.4586
 6629UDC     C872916  13.840  12.188   6.999  0.1645 -1.1784 -0.7332
 6629UDC     C972917  13.701  12.217   7.059 -0.0368  0.2622 -0.0123
 6629UDC    C1072918  13.685  12.136   7.186  0.2053  0.1668 -0.0189
 6629UDC    C1172919  13.568  12.034   7.181 -0.0605  0.0134  0.2876
 6630UDC     C172920   0.993   2.491  15.967 -0.1286  0.4083 -0.9707
 6630UDC     C272921   0.981   2.640  15.991 -0.3902  0.1407  0.3825
 6630UDC     C372922   1.048   2.743  15.899  0.9134 -0.9394 -0.0323
 6630UDC     C472923   1.076   2.865  16.000  0.1690  0.0526  0.0749
 6630UDC     C572924   1.194   2.851  16.102 -0.0049  0.2351 -0.0906
 6630UDC     C672925   1.214   3.002  16.149  0.7787 -0.4740 -0.8845
 6630UDC     C772926   1.221   3.060  16.294  0.6103  0.9535  0.6028
 6630UDC     C872927   1.355   3.055  16.371 -0.5733  0.1805  0.6648
 6630UDC     C972928   1.360   3.152  16.485 -0.2971  0.0585  0.2081
 6630UDC    C1072929   1.474   3.135  16.583  0.8949  0.0728 -0.0553
 6630UDC    C1172930   1.491   2.999  16.659 -0.4512  0.1728 -0.0414
 6631UDC     C172931  12.677  13.149  16.146 -0.9122 -0.4478  0.9755
 6631UDC     C272932  12.586  13.263  16.190 -0.9921 -0.6207 -0.0337
 6631UDC     C372933  12.587  13.269  16.339  0.6281  0.5313 -0.7417
 6631UDC     C472934  12.506  13.392  16.392 -0.0795  1.2286 -0.7795
 6631UDC     C572935  12.538  13.517  16.314  0.1312 -0.4189 -0.5752
 6631UDC     C672936  12.476  13.636  16.391  0.5951  0.6146 -0.0975
 6631UDC     C772937  12.352  13.567  16.461  0.6627 -0.0914 -0.3692
 6631UDC     C872938  12.311  13.673  16.574  0.2278 -0.2826 -0.8579
 6631UDC     C972939  12.195  13.626  16.656 -1.0157  1.0077 -0.5518
 6631UDC    C1072940  12.159  13.704  16.780  0.1128  0.2653  0.4973
 6631UDC    C1172941  12.127  13.632  16.911 -0.2345  0.3996  0.6899
 6632UDC     C172942   2.379   6.717   9.825  0.8453 -0.7842 -0.8508
 6632UDC     C272943   2.392   6.742   9.985 -0.8990 -0.5699 -0.0906
 6632UDC     C372944   2.459   6.878   9.988  0.0937 -0.5731  0.8253
 6632UDC     C472945   2.565   6.892   9.875  0.0827 -0.1871  0.6267
 6632UDC     C572946   2.664   7.003   9.921 -1.1526 -0.5228 -0.4868
 6632UDC     C672947   2.621   7.153   9.913 -0.1930 -0.3369 -0.6400
 6632UDC     C772948   2.474   7.198   9.933  0.1022  0.8753  0.7375
 6632UDC     C872949   2.437   7.342   9.948  0.0566 -0.7897  0.4779
 6632UDC     C972950   2.297   7.370  10.001  0.0121  0.3250 -0.2126
 6632UDC    C1072951   2.183   7.295   9.945  1.0272  0.3240  0.4147
 6632UDC    C1172952   2.065   7.376  10.001 -0.5032 -0.0793 -0.3055
 6633UDC     C172953   4.207   7.302   4.881  0.3791  1.1348  0.1308
 6633UDC     C272954   4.227   7.417   4.977 -0.0485 -0.0685  0.1118
 6633UDC     C372955   4.226   7.549   4.910 -0.4100 -0.8898  0.1316
 6633UDC     C472956   4.301   7.655   4.991 -0.8871  1.1748  0.6161
 6633UDC     C572957   4.345   7.792   4.947  0.8391 -0.3666  0.6863
 6633UDC     C672958   4.365   7.895   5.059 -0.4216 -0.8641  1.4745
 6633UDC     C772959   4.436   8.018   5.000 -0.2440  0.9417  0.0313
 6633UDC     C872960   4.446   8.139   5.098  0.2745 -0.3955 -0.2867
 6633UDC     C972961   4.558   8.100   5.199 -0.4372 -0.8516 -0.6668
 6633UDC    C1072962   4.570   8.199   5.314 -0.1065  0.2648  0.0827
 6633UDC    C1172963   4.674   8.183   5.434 -0.5911 -0.0082  0.8718
 6634UDC     C172964  10.703  15.014  12.140 -1.6804  0.9734  0.6761
 6634UDC     C272965  10.664  15.090  12.264 -0.5050  0.1846  0.1370
 6634UDC     C372966  10.606  15.012  12.382  0.0291 -0.1649  0.6735
 6634UDC     C472967  10.652  14.867  12.404 -0.7394  0.7300 -1.3873
 6634UDC     C572968  10.800  14.836  12.413 -0.9586 -0.1787 -0.0840
 6634UDC     C672969  10.833  14.694  12.437  0.1005  0.8729 -0.3071
 6634UDC     C772970  10.828  14.623  12.572  1.0701 -0.5654 -0.1971
 6634UDC     C872971  10.883  14.474  12.569 -0.8585  0.1095  0.7295
 6634UDC     C972972  10.841  14.404  12.433  0.2760 -0.4701  0.5905
 6634UDC    C1072973  10.868  14.251  12.427  0.2992  0.0570 -0.4121
 6634UDC    C1172974  11.018  14.219  12.425 -0.2521  0.6745  0.4222
 6635UDC     C172975  14.670   1.639  15.678 -0.0417  0.8032  0.4953
 6635UDC     C272976  14.815   1.677  15.680  0.5526 -0.9431  0.1096
 6635UDC     C372977  14.907   1.573  15.749  0.4036 -0.0765 -0.4181
 6635UDC     C472978  15.062   1.603  15.732  0.7932 -0.0666  0.5145
 6635UDC     C572979  15.154   1.519  15.821 -1.4556  0.6358 -0.3207
 6635UDC     C672980  15.280   1.580  15.881  0.3396 -0.7875  1.2320
 6635UDC     C772981  15.360   1.663  15.775 -0.4650 -0.4907 -0.0167
 6635UDC     C872982  15.518   1.670  15.788 -0.9399  0.8341  0.0271
 6635UDC     C972983  15.612   1.577  15.706  0.4437 -0.4867 -0.2734
 6635UDC    C1072984  15.613   1.581  15.554 -0.9487  0.1687  0.8600
 6635UDC    C1172985  15.666   1.451  15.502 -0.5893  0.0222  0.2003
 6636UDC     C172986   3.397  10.093   9.179 -0.0807 -0.2259  0.3584
 6636UDC     C272987   3.426  10.106   9.025 -0.7383 -0.0289 -0.4906
 6636UDC     C372988   3.328  10.010   8.959  0.0711  0.2672  0.9047
 6636UDC     C472989   3.345   9.987   8.807  0.1327  0.8654 -0.4093
 6636UDC     C572990   3.479   9.915   8.771  0.3774 -0.8081  0.1778
 6636UDC     C672991   3.541   9.996   8.664  0.2720  0.1207 -0.1517
 6636UDC     C772992   3.568   9.937   8.525  0.1042  0.6033  0.2045
 6636UDC     C872993   3.465   9.948   8.412  1.2006 -0.0805 -0.5626
 6636UDC     C972994   3.532   9.925   8.281 -0.5281 -0.2625  0.5645
 6636UDC    C1072995   3.498  10.036   8.178 -0.3500  0.8524 -0.8089
 6636UDC    C1172996   3.551  10.003   8.030 -0.1978  0.1214 -0.8155
 6637UDC     C172997   5.798   7.971   1.739  0.2399 -0.0829  0.4798
 6637UDC     C272998   5.952   7.952   1.727 -0.5079  1.5479 -0.2174
 6637UDC     C372999   5.989   7.847   1.832  0.2647  1.0257  0.8394
 6637UDC     C473000   6.131   7.796   1.842  1.2550 -0.3468  0.5018
 6637UDC     C573001   6.205   7.788   1.711  0.9152 -0.0486  1.2039
 6637UDC     C673002   6.355   7.758   1.696  0.6527  0.1031 -0.1831
 6637UDC     C773003   6.420   7.796   1.567 -0.2739  0.6952  0.0795
 6637UDC     C873004   6.422   7.682   1.459  0.7796  0.4814 -0.3581
 6637UDC     C973005   6.526   7.691   1.346 -1.0090 -0.2604  0.0769
 6637UDC    C1073006   6.672   7.663   1.381  0.2477 -0.2312  0.6685
 6637UDC    C1173007   6.792   7.731   1.318 -0.2622 -0.1953  0.4480
 6638UDC     C173008  13.220   9.911  19.021  0.5095 -0.2558  0.2499
 6638UDC     C273009  13.332   9.874  19.116 -0.8543 -0.4617 -1.1566
 6638UDC     C373010  13.468   9.910  19.050  0.7737  0.4931 -0.4540
 6638UDC     C473011  13.578   9.846  19.132  0.1180  0.5079  0.2310
 6638UDC     C573012  13.717   9.890  19.080 -0.5123  0.8338 -0.3259
 6638UDC     C673013  13.759  10.038  19.105  0.4713 -0.8208  0.5471
 6638UDC     C773014  13.866  10.097  19.005  0.8234 -0.1312 -0.5063
 6638UDC     C873015  13.898  10.242  19.011 -0.5357  0.2358  0.3629
 6638UDC     C973016  13.976  10.283  18.886 -0.8184 -0.9834  0.0544
 6638UDC    C1073017  13.952  10.166  18.790 -0.4430  0.5918  0.2778
 6638UDC    C1173018  14.038  10.195  18.662 -0.2586  0.0458  0.2936
 6639UDC     C173019  14.661   5.602   3.951 -0.2796  0.2911 -0.0566
 6639UDC     C273020  14.575   5.478   3.987 -1.0277  0.4123  0.4184
 6639UDC     C373021  14.438   5.496   4.067 -0.2776  0.1670  0.6839
 6639UDC     C473022  14.335   5.404   3.984 -1.2364 -0.2502 -0.9604
 6639UDC     C573023  14.216   5.340   4.059  0.2064  0.0688  0.5881
 6639UDC     C673024  14.103   5.297   3.976  0.6116  0.0212  0.7651
 6639UDC     C773025  14.054   5.154   3.998  0.1474 -0.0183 -0.1215
 6639UDC     C873026  13.939   5.115   3.906 -0.3937 -0.0937  0.4218
 6639UDC     C973027  13.991   5.061   3.769  0.5660 -0.9153 -0.1227
 6639UDC    C1073028  13.892   4.998   3.670  0.3894  0.6037 -0.9133
 6639UDC    C1173029  13.803   5.091   3.586  0.9134  0.5900  0.3738
 6640UDC     C173030   3.949   9.202  13.455 -1.3642 -0.4614  0.5939
 6640UDC     C273031   3.945   9.276  13.595  0.8443 -0.1832  0.4313
 6640UDC     C373032   3.827   9.228  13.682 -0.5613 -0.2153  0.5394
 6640UDC     C473033   3.708   9.327  13.676 -0.9109  0.2695  0.7109
 6640UDC     C573034   3.584   9.284  13.759 -1.1600 -0.1785 -0.3884
 6640UDC     C673035   3.461   9.371  13.745 -0.1003  0.4972  0.8393
 6640UDC     C773036   3.342   9.329  13.659 -0.5261  0.1072 -0.1993
 6640UDC     C873037   3.195   9.361  13.710 -1.0746  0.1179 -0.8824
 6640UDC     C973038   3.076   9.316  13.624  0.2143  0.2677 -1.6347
 6640UDC    C1073039   3.076   9.165  13.606  0.7464  0.1688  0.6244
 6640UDC    C1173040   3.009   9.087  13.729 -0.1091  0.0100  0.3903
 6641UDC     C173041   4.309  14.777  13.872 -0.1889 -0.5508  0.6610
 6641UDC     C273042   4.328  14.686  13.989  0.2502 -0.3911 -0.0809
 6641UDC     C373043   4.212  14.663  14.088  0.6031 -0.1703  0.3950
 6641UDC     C473044   4.172  14.778  14.181  0.4338  0.6291  0.1889
 6641UDC     C573045   4.072  14.734  14.299 -0.1373 -0.1480  0.5184
 6641UDC     C673046   3.958  14.645  14.238 -0.0683 -0.7269 -1.0203
 6641UDC     C773047   3.830  14.708  14.308 -0.9594  0.4437  0.1262
 6641UDC     C873048   3.775  14.835  14.237  0.2350 -0.4078 -0.4400
 6641UDC     C973049   3.750  14.945  14.340 -0.4481 -0.1009 -0.7051
 6641UDC    C1073050   3.668  15.065  14.288 -0.4265 -0.4793  0.1984
 6641UDC    C1173051   3.520  15.030  14.312 -0.5460 -0.2455 -0.7563
 6642UDC     C173052   9.528   8.847   9.970  0.6735 -0.3907 -0.7712
 6642UDC     C273053   9.570   8.967  10.054  0.7358 -0.0812  0.3359
 6642UDC     C373054   9.495   8.974  10.186  0.3421  0.1075 -0.1099
 6642UDC     C473055   9.581   8.961  10.319 -0.1607  0.5477  0.1348
 6642UDC     C573056   9.521   9.037  10.434  0.3142 -0.9700  0.5355
 6642UDC     C673057   9.377   9.010  10.469 -0.2383 -0.5362 -0.6754
 6642UDC     C773058   9.297   9.100  10.572 -0.0183 -0.2775  0.0638
 6642UDC     C873059   9.326   9.107  10.725  0.0099  0.2503 -0.4507
 6642UDC     C973060   9.210   9.159  10.816 -0.2588  0.5980  0.2037
 6642UDC    C1073061   9.253   9.194  10.961 -0.0101 -0.1041  0.2539
 6642UDC    C1173062   9.222   9.341  10.985  0.3468 -0.1302  0.0239
 6643UDC     C173063   3.254  13.507   6.889 -0.2889  0.0051  0.4051
 6643UDC     C273064   3.323  13.416   6.990  0.1328 -0.3644 -0.2579
 6643UDC     C373065   3.330  13.445   7.139 -0.4677 -0.7534  0.0726
 6643UDC     C473066   3.202  13.459   7.215 -0.7738  0.4006 -1.1188
 6643UDC     C573067   3.125  13.329   7.217 -0.8552  0.6061  0.7344
 6643UDC     C673068   3.011  13.307   7.312  0.4208 -0.1351 -0.4444
 6643UDC     C773069   2.931  13.173   7.312 -0.1198 -0.5560 -0.1165
 6643UDC     C873070   2.820  13.192   7.418 -0.8568  0.7440  0.7606
 6643UDC     C973071   2.708  13.085   7.405 -0.2671  0.3541 -0.8623
 6643UDC    C1073072   2.647  13.076   7.269  0.4640  0.3989 -0.2984
 6643UDC    C1173073   2.596  12.938   7.224  0.8075 -0.4333 -0.2853
 6644UDC     C173074  18.394   2.672   7.788 -0.8050 -0.3037  0.7991
 6644UDC     C273075  18.369   2.727   7.929  0.4416  0.5172  0.8634
 6644UDC     C373076  18.236   2.797   7.936  0.6537 -0.9874 -0.1411
 6644UDC     C473077  18.209   2.885   8.064  0.2515  0.0861  0.4809
 6644UDC     C573078  18.071   2.958   8.050 -0.3590 -0.4998  0.3339
 6644UDC     C673079  18.020   3.051   8.166 -1.1740  0.8057 -0.4475
 6644UDC     C773080  17.876   3.102   8.156 -0.8924  1.1255  0.1669
 6644UDC     C873081  17.772   2.989   8.139  0.5696 -0.0331 -0.1271
 6644UDC     C973082  17.631   3.020   8.191  0.5434  0.5028 -0.2905
 6644UDC    C1073083  17.528   2.996   8.088 -0.7187 -0.1541 -0.0893
 6644UDC    C1173084  17.397   3.067   8.108  0.0931 -0.3374 -0.6016
 6645UDC     C173085  13.648   3.263  13.839  0.5959  0.3099  0.1357
 6645UDC     C273086  13.500   3.246  13.869  0.0497  0.4194 -1.2239
 6645UDC     C373087  13.474   3.307  14.003 -0.3131 -0.1398 -0.4917
 6645UDC     C473088  13.364   3.241  14.086  0.1157  0.8644  1.6547
 6645UDC     C573089  13.222   3.238  14.025  0.2422 -0.0269  0.4434
 6645UDC     C673090  13.122   3.203  14.146 -1.0641 -0.2950  0.5090
 6645UDC     C773091  13.032   3.090  14.100 -0.4724  0.0375 -1.4433
 6645UDC     C873092  13.109   2.977  14.032 -1.0304 -0.7705  0.7464
 6645UDC     C973093  13.035   2.874  13.950  0.0547  0.1421 -0.9502
 6645UDC    C1073094  12.948   2.927  13.833  1.3179 -0.3857  0.0295
 6645UDC    C1173095  13.020   2.984  13.711  0.5752  0.1745 -0.1170
 6646UDC     C173096   3.797  13.069  16.153 -0.0087 -0.6971 -0.9787
 6646UDC     C273097   3.670  13.155  16.154 -0.1178 -0.0836 -1.2666
 6646UDC     C373098   3.614  13.163  16.009  0.3243  0.2491  0.0317
 6646UDC     C473099   3.480  13.241  15.995 -0.0975  0.2143 -0.2533
 6646UDC     C573100   3.374  13.183  16.095  0.1096 -0.0282 -0.0091
 6646UDC     C673101   3.258  13.280  16.111 -0.5271  0.4381  0.2895
 6646UDC     C773102   3.144  13.200  16.173  0.0405 -0.5604 -0.8092
 6646UDC     C873103   3.163  13.158  16.319 -0.1384  0.5313 -0.3696
 6646UDC     C973104   3.031  13.137  16.393  0.0886  0.3106 -0.1445
 6646UDC    C1073105   3.059  13.144  16.544 -0.7002  0.1865 -0.6865
 6646UDC    C1173106   3.128  13.023  16.616 -0.0781  0.1382  0.2891
 6647UDC     C173107   5.337   5.933  18.598 -0.2572 -0.8430  0.0741
 6647UDC     C273108   5.248   6.026  18.512 -1.2462  0.2424  0.2387
 6647UDC     C373109   5.136   5.963  18.433 -0.3663  0.4368 -1.4271
 6647UDC     C473110   5.076   6.072  18.343  0.2834  1.0165  0.6920
 6647UDC     C573111   4.985   6.018  18.233 -0.4211 -0.0524  0.2624
 6647UDC     C673112   4.932   6.147  18.178 -0.4903 -0.4732 -0.6067
 6647UDC     C773113   4.799   6.135  18.116  0.2960 -0.4896 -0.1770
 6647UDC     C873114   4.823   6.053  17.983  0.0073 -1.0028  0.5259
 6647UDC     C973115   4.716   5.955  17.941  0.1432 -0.2975 -0.3709
 6647UDC    C1073116   4.746   5.823  17.868  0.5024 -1.0533 -0.4354
 6647UDC    C1173117   4.841   5.853  17.759  0.4315  1.7367 -0.1094
 6648UDC     C173118   6.814  13.962  19.721 -0.1119 -0.2928  1.0397
 6648UDC     C273119   6.782  14.080  19.815 -0.7910 -1.1201  0.5504
 6648UDC     C373120   6.764  14.213  19.732 -0.0733 -0.3422  0.0782
 6648UDC     C473121   6.626  14.253  19.673  0.2686  1.3295  0.2337
 6648UDC     C573122   6.499  14.242  19.757 -0.0189  0.2264  1.3007
 6648UDC     C673123   6.379  14.322  19.694  0.1883 -0.1944  0.6919
 6648UDC     C773124   6.247  14.321  19.772  0.0537 -0.7675 -0.1324
 6648UDC     C873125   6.141  14.402  19.704 -0.7976 -0.8641  0.0245
 6648UDC     C973126   6.018  14.455  19.775 -0.2456  0.7079  0.2706
 6648UDC    C1073127   5.904  14.521  19.698  1.0334  0.4009  0.9536
 6648UDC    C1173128   5.923  14.674  19.680 -0.3033 -1.0162 -0.1064
 6649UDC     C173129  13.855   9.748   9.009  0.1093 -0.3069  0.9034
 6649UDC     C273130  13.993   9.735   8.936  0.7396 -0.6070 -0.5522
 6649UDC     C373131  14.091   9.650   9.013  1.0601  0.9447  0.1761
 6649UDC     C473132  14.043   9.508   9.025 -0.0016  0.3095  0.1268
 6649UDC     C573133  14.032   9.454   8.883  0.2604  0.3173  0.5413
 6649UDC     C673134  14.047   9.303   8.895  0.4492  0.1485 -1.3743
 6649UDC     C773135  14.033   9.240   8.756  0.5291 -0.9660  0.3087
 6649UDC     C873136  13.886   9.262   8.700 -0.2300  0.3582  0.2007
 6649UDC     C973137  13.838   9.162   8.586 -0.2010  0.4456  0.0892
 6649UDC    C1073138  13.952   9.115   8.498 -0.2575  0.8198  0.1688
 6649UDC    C1173139  14.034   9.214   8.426  0.2382 -0.4798  0.2635
 6650UDC     C173140   5.061  16.493  10.600  0.4822  0.3321 -0.8808
 6650UDC     C273141   5.094  16.483  10.754  0.3806 -0.1888 -0.0038
 6650UDC     C373142   5.144  16.622  10.817 -0.4511 -0.1271 -0.0853
 6650UDC     C473143   5.201  16.607  10.961 -0.6268 -0.7291 -0.1441
 6650UDC     C573144   5.348  16.659  10.958  0.0213  0.8887 -0.1336
 6650UDC     C673145   5.451  16.578  10.880  0.0322  0.1106  0.4182
 6650UDC     C773146   5.592  16.628  10.853 -0.5379 -0.0004 -1.2199
 6650UDC     C873147   5.692  16.608  10.968 -0.5041 -0.6185 -0.4744
 6650UDC     C973148   5.849  16.643  10.953  0.4449  1.2093  0.1313
 6650UDC    C1073149   5.904  16.572  10.825  0.6954 -0.4954 -0.7189
 6650UDC    C1173150   6.056  16.596  10.831  0.1478 -1.1517  0.1699
 6651UDC     C173151   2.971  12.100  15.133 -0.2337  0.2550 -0.5299
 6651UDC     C273152   3.030  11.974  15.195  0.7716 -0.2436 -0.0608
 6651UDC     C373153   2.977  11.938  15.339 -0.6096 -0.1070  0.4808
 6651UDC     C473154   2.997  11.801  15.399  0.6612  0.3473 -0.5550
 6651UDC     C573155   2.933  11.698  15.303 -0.0915  0.1913  0.7744
 6651UDC     C673156   2.957  11.556  15.363  0.6052 -0.5179 -0.0915
 6651UDC     C773157   3.100  11.515  15.399  0.1003  0.5603  0.3524
 6651UDC     C873158   3.191  11.529  15.280  0.2679  1.0192  0.2254
 6651UDC     C973159   3.333  11.585  15.330  0.2792  0.6560 -0.5935
 6651UDC    C1073160   3.432  11.478  15.392 -0.3908  0.5304 -0.3127
 6651UDC    C1173161   3.506  11.413  15.274  0.7509 -0.5179 -0.5098
 6652UDC     C173162  18.645  15.803   5.910 -0.0447  0.4961 -1.4776
 6652UDC     C273163  18.690  15.922   6.000 -0.3556  0.1602 -0.2713
 6652UDC     C373164  18.580  16.002   6.060  0.6797  0.4186  0.3963
 6652UDC     C473165  18.510  16.101   5.960 -0.7680 -1.0224  0.4026
 6652UDC     C573166  18.414  16.203   6.016  0.2742 -1.2887  0.2077
 6652UDC     C673167  18.274  16.213   5.964  0.7308  0.4586  0.5097
 6652UDC     C773168  18.188  16.333   6.019 -0.3509  0.8328 -0.1030
 6652UDC     C873169  18.072  16.388   5.929 -1.0243  0.4589  0.9458
 6652UDC     C973170  17.951  16.459   5.991 -0.0019  0.4876  0.4000
 6652UDC    C1073171  17.843  16.367   6.033  0.1374  0.7375  0.1902
 6652UDC    C1173172  17.715  16.452   6.007 -0.1414  0.5863 -1.3650
 6653UDC     C173173  15.412  10.286  15.494  0.2754  1.1504 -0.0211
 6653UDC     C273174  15.370  10.239  15.639  0.1333  0.0182  0.4150
 6653UDC     C373175  15.421  10.099  15.659 -0.6815  1.0030 -0.3966
 6653UDC     C473176  15.402  10.035  15.518  1.2435  0.4345  0.7888
 6653UDC     C573177  15.405   9.876  15.509 -1.8304  0.6092 -0.1767
 6653UDC     C673178  15.278   9.792  15.541 -0.5554  0.5756 -0.4969
 6653UDC     C773179  15.150   9.815  15.459  1.0610  0.0795 -0.7259
 6653UDC     C873180  15.018   9.763  15.518  0.6652 -0.0566  0.1996
 6653UDC     C973181  14.898   9.817  15.433 -0.2166 -0.1827  0.0299
 6653UDC    C1073182  14.905   9.769  15.285  0.3842  0.2638  0.2563
 6653UDC    C1173183  14.890   9.620  15.248 -0.1416 -0.1160 -0.1406
 6654UDC     C173184  10.973   7.388  16.679  1.3535  0.7653 -0.4282
 6654UDC     C273185  10.843   7.408  16.758  0.0528  0.5389  0.8777
 6654UDC     C373186  10.733   7.313  16.719 -0.9484  0.3399 -0.0113
 6654UDC     C473187  10.605   7.311  16.811  1.2129 -0.1795  0.2331
 6654UDC     C573188  10.531   7.175  16.798  0.1725  0.5813 -0.5192
 6654UDC     C673189  10.432   7.133  16.913 -0.2720 -1.0326 -0.4355
 6654UDC     C773190  10.414   6.990  16.952 -0.2301  0.6176  0.5417
 6654UDC     C873191  10.336   6.904  16.853  0.0698 -0.9333  0.1913
 6654UDC     C973192  10.193   6.945  16.838  0.3100  0.0838 -0.6375
 6654UDC    C1073193  10.126   6.826  16.776 -1.6000  0.0269  0.5470
 6654UDC    C1173194   9.974   6.833  16.788 -0.1493  0.7865  0.4093
 6655UDC     C173195   1.929  13.257   6.653  0.4772 -0.4554  1.1494
 6655UDC     C273196   2.059  13.200   6.595 -0.0686 -1.1195  0.0874
 6655UDC     C373197   2.125  13.083   6.670  0.0513  0.8146 -0.8651
 6655UDC     C473198   2.259  13.062   6.604 -0.1701  0.7386  0.1285
 6655UDC     C573199   2.324  12.950   6.680  0.4925  0.3000  0.5812
 6655UDC     C673200   2.247  12.818   6.688  0.0407  0.8615 -0.2944
 6655UDC     C773201   2.331  12.693   6.707 -0.4192  0.7991  0.2356
 6655UDC     C873202   2.234  12.572   6.734  0.4260  0.3412 -0.0776
 6655UDC     C973203   2.138  12.550   6.616  0.3149 -0.3222 -1.1494
 6655UDC    C1073204   2.198  12.494   6.486  0.2980  0.0252  0.6394
 6655UDC    C1173205   2.093  12.468   6.379  0.4741 -0.5358 -0.4336
 6656UDC     C173206   1.706   5.303  16.101 -0.6659 -0.8310  1.2465
 6656UDC     C273207   1.671   5.410  16.214  0.4523  0.3380  0.4929
 6656UDC     C373208   1.793   5.465  16.291 -0.0800  1.1146  0.7898
 6656UDC     C473209   1.879   5.362  16.364 -0.0097  0.4208 -0.7248
 6656UDC     C573210   1.998   5.417  16.451 -0.1712  0.6921  1.3603
 6656UDC     C673211   2.080   5.296  16.493 -0.2670 -0.8868 -0.1989
 6656UDC     C773212   1.993   5.191  16.567  0.3585 -0.7226  0.6321
 6656UDC     C873213   2.101   5.112  16.635 -0.9579  0.6377 -0.8058
 6656UDC     C973214   2.070   5.026  16.755  0.6989 -0.3925 -0.1231
 6656UDC    C1073215   1.953   4.932  16.715 -0.6320 -0.9063  0.2962
 6656UDC    C1173216   1.872   4.896  16.833  0.1774 -0.5803  0.0962
 6657UDC     C173217  11.132   6.145  16.284 -0.0282 -0.0937  0.5693
 6657UDC     C273218  11.166   6.271  16.199 -0.1151 -0.2716 -0.5499
 6657UDC     C373219  11.060   6.378  16.161 -0.2180 -0.1866  0.2423
 6657UDC     C473220  11.116   6.491  16.068 -1.1283 -0.1037 -0.6676
 6657UDC     C573221  11.005   6.596  16.070  0.2326 -1.3832  0.0450
 6657UDC     C673222  11.036   6.709  15.971  1.2141 -0.4796 -0.1265
 6657UDC     C773223  10.948   6.840  15.969 -0.5693 -0.2968 -0.3993
 6657UDC     C873224  10.940   6.922  15.843 -1.5413  0.9344 -0.1633
 6657UDC     C973225  10.854   7.047  15.841 -0.4209  0.1402  1.6709
 6657UDC    C1073226  10.803   7.079  15.690 -0.9695  0.1311  0.3758
 6657UDC    C1173227  10.744   7.220  15.656 -0.6231  0.8644 -0.7585
 6658UDC     C173228  11.588  12.167   9.788 -0.6897 -0.2341 -0.7680
 6658UDC     C273229  11.456  12.247   9.817 -0.0511 -0.1346 -0.3068
 6658UDC     C373230  11.448  12.389   9.753 -0.0908  0.5817 -0.1685
 6658UDC     C473231  11.514  12.510   9.824  0.0046 -0.3447  0.6946
 6658UDC     C573232  11.518  12.627   9.730 -0.4941 -0.2942 -0.1402
 6658UDC     C673233  11.584  12.597   9.594 -0.2337  0.0389  0.4658
 6658UDC     C773234  11.559  12.702   9.483 -0.1503 -0.4027  0.5006
 6658UDC     C873235  11.646  12.690   9.350 -1.4539  1.0308 -1.3060
 6658UDC     C973236  11.643  12.793   9.236  0.0402 -0.1524  0.1614
 6658UDC    C1073237  11.709  12.929   9.248 -0.5461  0.5955  0.3929
 6658UDC    C1173238  11.734  12.994   9.111 -0.0048 -0.4767 -1.0391
 6659UDC     C173239  15.052   4.459   3.892 -0.7454 -0.0990 -0.6223
 6659UDC     C273240  14.925   4.535   3.933  0.3539 -0.9219 -1.2146
 6659UDC     C373241  14.805   4.458   3.998  0.7561  0.3956  0.0260
 6659UDC     C473242  14.684   4.531   4.060  0.9329  0.3145  0.7362
 6659UDC     C573243  14.686   4.577   4.205 -0.6968 -0.3834 -0.3653
 6659UDC     C673244  14.708   4.458   4.299  0.1424  0.5247  0.4118
 6659UDC     C773245  14.740   4.499   4.446  0.2882 -1.4264  0.3739
 6659UDC     C873246  14.638   4.598   4.506 -0.9133 -0.9000  0.7925
 6659UDC     C973247  14.626   4.605   4.659  0.5129  0.7372 -0.3680
 6659UDC    C1073248  14.572   4.741   4.711 -0.4641 -0.3398  0.1966
 6659UDC    C1173249  14.434   4.775   4.651 -0.0783  0.1323  0.5883
 6660UDC     C173250   2.860  13.537   2.140 -0.2274 -0.7804  0.2344
 6660UDC     C273251   2.898  13.461   2.267  0.5852  0.1868  0.1319
 6660UDC     C373252   3.036  13.398   2.238  0.3302 -0.1380 -0.1845
 6660UDC     C473253   3.088  13.311   2.354  0.7469 -0.7766  0.4640
 6660UDC     C573254   3.159  13.400   2.462 -0.7928 -0.7840 -0.4574
 6660UDC     C673255   3.312  13.417   2.439  0.6641 -0.8983 -0.5722
 6660UDC     C773256   3.373  13.461   2.567  0.2958 -0.2913 -0.5294
 6660UDC     C873257   3.525  13.473   2.570 -0.3962  0.1064  0.1533
 6660UDC     C973258   3.565  13.435   2.713  0.9366  0.3281 -1.1473
 6660UDC    C1073259   3.714  13.417   2.709 -0.0062  0.1861 -0.1047
 6660UDC    C1173260   3.759  13.380   2.561 -0.4646 -0.0563 -0.0870
 6661UDC     C173261  15.372  11.198   7.457 -0.4477 -1.2603  0.8978
 6661UDC     C273262  15.315  11.098   7.353 -0.5837 -0.1865  0.0532
 6661UDC     C373263  15.187  11.029   7.389 -0.1840 -0.1894 -1.5044
 6661UDC     C473264  15.161  10.881   7.352  0.0615  0.2879  0.3229
 6661UDC     C573265  15.241  10.771   7.432  0.7692 -0.2277 -0.3644
 6661UDC     C673266  15.259  10.632   7.374  0.0090  0.7046  0.6872
 6661UDC     C773267  15.333  10.611   7.248  0.2031 -0.0631  1.1432
 6661UDC     C873268  15.344  10.454   7.208  0.3220 -0.8594  0.3161
 6661UDC     C973269  15.455  10.427   7.106 -0.5089 -0.4854 -0.0915
 6661UDC    C1073270  15.438  10.318   7.007  0.3603  0.9777  0.6268
 6661UDC    C1173271  15.439  10.180   7.065 -0.1059 -0.7750 -0.0196
 6662UDC     C173272  18.282  14.861  18.089  0.1206 -0.4636  0.0448
 6662UDC     C273273  18.236  14.816  18.229  0.4115 -0.4441  0.1889
 6662UDC     C373274  18.340  14.726  18.298  0.1851 -0.7785  0.1772
 6662UDC     C473275  18.296  14.665  18.432  0.6951  1.5508  1.1594
 6662UDC     C573276  18.402  14.606  18.525  0.2164  0.2806 -0.3408
 6662UDC     C673277  18.453  14.461  18.518  0.0836  1.6075 -0.3226
 6662UDC     C773278  18.336  14.360  18.494  1.0648  0.1523  0.4350
 6662UDC     C873279  18.386  14.246  18.420 -0.4815 -0.4977  0.2950
 6662UDC     C973280  18.491  14.180  18.494 -0.0339 -0.3588 -0.2271
 6662UDC    C1073281  18.454  14.052  18.576 -0.3962 -0.6223  0.3692
 6662UDC    C1173282  18.310  14.004  18.555  0.5966 -0.1777 -0.1215
 6663UDC     C173283   2.250  12.506  14.714 -0.3284 -0.1563  0.3713
 6663UDC     C273284   2.109  12.577  14.723  0.0143  0.3366  0.1775
 6663UDC     C373285   2.041  12.550  14.863  0.4548  0.1354 -1.2563
 6663UDC     C473286   1.899  12.601  14.882  0.5929 -0.0907  1.2262
 6663UDC     C573287   1.813  12.506  14.969 -1.3406  0.6085 -0.4450
 6663UDC     C673288   1.845  12.539  15.118 -0.8781 -0.1100  0.3781
 6663UDC     C773289   1.724  12.599  15.187  0.5558  0.0668  0.1155
 6663UDC     C873290   1.754  12.611  15.341  0.9623  1.2815  0.5380
 6663UDC     C973291   1.638  12.679  15.419  0.9019  0.4898 -0.1742
 6663UDC    C1073292   1.569  12.577  15.514  0.6730  0.4510  0.0522
 6663UDC    C1173293   1.505  12.471  15.429  0.1846  0.1817  0.5668
 6664UDC     C173294   3.018   2.064  13.160 -0.2810  0.2305  0.5976
 6664UDC     C273295   3.020   2.217  13.166 -0.6640 -1.6297 -0.4899
 6664UDC     C373296   3.088   2.325  13.257  0.9180  0.2808  0.3010
 6664UDC     C473297   3.034   2.467  13.238 -1.3785  0.3802 -0.4749
 6664UDC     C573298   3.143   2.571  13.241 -0.3517  0.1059  0.8188
 6664UDC     C673299   3.193   2.613  13.368 -0.0473 -0.1965 -0.9431
 6664UDC     C773300   3.327   2.692  13.377 -0.1075 -0.1510  0.7278
 6664UDC     C873301   3.332   2.801  13.272  1.0268  0.3685 -0.3823
 6664UDC     C973302   3.249   2.922  13.304  0.4756  0.9533  0.0668
 6664UDC    C1073303   3.181   2.977  13.176  0.2569  0.0183  1.2977
 6664UDC    C1173304   3.272   3.039  13.070 -0.2387 -0.6508 -0.1147
 6665UDC     C173305  18.979   0.741   9.722 -0.0456 -0.1018 -1.2842
 6665UDC     C273306  18.968   0.592   9.735  0.8286 -0.3447 -0.3846
 6665UDC     C373307  18.865   0.516   9.643  0.3664 -0.6878  0.1763
 6665UDC     C473308  18.863   0.363   9.662  0.4105 -0.4948  0.3110
 6665UDC     C573309  18.822   0.314   9.805 -0.2278  0.1627  0.0369
 6665UDC     C673310  18.837   0.163   9.822 -0.4091  0.5581  0.3766
 6665UDC     C773311  18.785   0.076   9.936  0.0859  0.6457 -0.9552
 6665UDC     C873312  18.839  -0.065   9.942 -0.9678  0.1040 -0.1976
 6665UDC     C973313  18.999  -0.070   9.947 -0.5283 -0.0906  0.1580
 6665UDC    C1073314  19.029  -0.214   9.972  0.5869  0.7418  0.2307
 6665UDC    C1173315  18.948  -0.272  10.091  0.6694 -0.7373 -1.4167
 6666UDC     C173316   1.286   9.086   8.461 -0.6858  0.8531  0.9035
 6666UDC     C273317   1.354   9.058   8.328  0.0133  0.4290  1.0404
 6666UDC     C373318   1.468   9.160   8.293  0.5018 -0.3863 -0.6945
 6666UDC     C473319   1.535   9.147   8.157 -0.1554 -0.2098 -0.8597
 6666UDC     C573320   1.555   8.997   8.137 -1.1884  0.7049 -0.1898
 6666UDC     C673321   1.660   8.973   8.024  0.2130  0.0804 -1.7020
 6666UDC     C773322   1.743   8.843   8.045  0.1258  0.3326  0.6488
 6666UDC     C873323   1.865   8.852   8.143  0.1898 -0.0666  0.6428
 6666UDC     C973324   2.000   8.890   8.082  0.3517 -0.4708  0.8147
 6666UDC    C1073325   2.036   8.821   7.956 -0.8494 -0.5308  0.5742
 6666UDC    C1173326   2.064   8.672   7.959 -0.1317  0.2142 -0.2588
 6667UDC     C173327   1.287  12.692  14.616 -0.3567 -0.0871 -0.5757
 6667UDC     C273328   1.421  12.682  14.686 -0.0591 -0.9646 -0.4431
 6667UDC     C373329   1.509  12.589  14.604  0.7841 -0.0134  0.0408
 6667UDC     C473330   1.504  12.606  14.456 -0.0480 -0.2584 -1.3554
 6667UDC     C573331   1.571  12.487  14.393 -1.0372 -0.4193 -0.6362
 6667UDC     C673332   1.717  12.487  14.431 -0.4462 -0.4805  0.6791
 6667UDC     C773333   1.792  12.380  14.342 -0.6803  0.4528 -0.6827
 6667UDC     C873334   1.945  12.389  14.370 -0.6532 -0.6645 -0.4080
 6667UDC     C973335   2.028  12.262  14.346  0.3940  0.5024  0.3965
 6667UDC    C1073336   2.184  12.268  14.363 -0.0170 -0.8782  0.8059
 6667UDC    C1173337   2.269  12.318  14.241  0.7006  0.7658 -1.4204
 6668UDC     C173338   6.357  13.545  18.738  0.1083 -0.5752 -0.1132
 6668UDC     C273339   6.264  13.533  18.616 -0.1824  0.1855  0.3184
 6668UDC     C373340   6.327  13.437  18.509  1.0644 -0.2088  0.1097
 6668UDC     C473341   6.334  13.289  18.568  0.2627 -0.4290 -1.1669
 6668UDC     C573342   6.394  13.193  18.462  1.0713  0.7938 -0.1186
 6668UDC     C673343   6.456  13.062  18.529  0.4076  0.7018  1.0950
 6668UDC     C773344   6.531  12.970  18.428 -0.1277  0.3077  0.2368
 6668UDC     C873345   6.551  12.831  18.492 -0.5700 -1.0249 -0.0021
 6668UDC     C973346   6.640  12.745  18.408 -0.2037  0.5421  0.4508
 6668UDC    C1073347   6.674  12.597  18.461  0.0224  0.4254 -0.3174
 6668UDC    C1173348   6.538  12.519  18.483  0.1877  0.1488 -0.1270
 6669UDC     C173349  10.303  16.780  15.828  0.0909  1.3061 -0.0198
 6669UDC     C273350  10.281  16.916  15.771  0.0918 -0.0231  0.5293
 6669UDC     C373351  10.274  16.904  15.623  1.0702  0.6264 -0.8297
 6669UDC     C473352  10.381  16.830  15.539 -0.1405  0.8985 -0.0518
 6669UDC     C573353  10.383  16.878  15.392 -0.2249 -0.2748  0.0974
 6669UDC     C673354  10.442  16.797  15.277  0.8128 -0.3612  0.9160
 6669UDC     C773355  10.595  16.763  15.277 -0.3125 -0.5715 -0.3185
 6669UDC     C873356  10.682  16.759  15.155 -0.3572 -0.3135 -0.2122
 6669UDC     C973357  10.826  16.706  15.161  0.2637 -0.0004  0.6727
 6669UDC    C1073358  10.901  16.697  15.034 -0.0862 -0.7606  0.7854
 6669UDC    C1173359  11.043  16.659  15.061 -0.4640 -0.4905 -0.0536
 6670UDC     C173360   9.943  13.289   3.643  0.4686  0.2742  0.5206
 6670UDC     C273361   9.899  13.181   3.534 -0.1542 -0.1322  0.3754
 6670UDC     C373362   9.968  13.210   3.396  0.0575  0.2353  0.0570
 6670UDC     C473363  10.110  13.162   3.359  0.6577 -0.3884  0.1359
 6670UDC     C573364  10.136  13.016   3.381 -0.3823 -0.2929  1.5468
 6670UDC     C673365  10.291  12.989   3.364  0.0817  0.4704  0.6043
 6670UDC     C773366  10.350  12.855   3.410 -0.2293 -0.3343 -1.1328
 6670UDC     C873367  10.265  12.734   3.372 -0.8870  0.6999 -0.2053
 6670UDC     C973368  10.349  12.616   3.404 -1.2001  0.0357  0.7205
 6670UDC    C1073369  10.394  12.578   3.550  0.6736 -0.1927 -0.8019
 6670UDC    C1173370  10.457  12.447   3.576  0.5703 -1.3437 -0.1321
 6671UDC     C173371  17.553   6.143   9.174 -1.5721 -1.0574  0.1712
 6671UDC     C273372  17.611   6.072   9.297  0.3571  0.5386  0.2712
 6671UDC     C373373  17.756   6.082   9.318 -1.2018  0.5211 -0.7325
 6671UDC     C473374  17.841   6.059   9.195  0.7271  0.0720 -0.5208
 6671UDC     C573375  17.855   5.913   9.158  0.0129  0.1544  0.3571
 6671UDC     C673376  17.939   5.857   9.034  0.2244 -0.7465 -0.6421
 6671UDC     C773377  17.965   5.709   9.011  0.4962  0.7024  0.4481
 6671UDC     C873378  17.851   5.602   9.027  0.1001 -0.7781  0.1229
 6671UDC     C973379  17.880   5.460   9.061 -1.4048  1.0748 -0.7083
 6671UDC    C1073380  17.794   5.403   9.182  0.4394 -1.5251  0.9203
 6671UDC    C1173381  17.685   5.301   9.153 -0.2794 -0.4696 -0.2311
 6672UDC     C173382   3.568  13.216  18.029  0.6866 -0.0190 -1.1519
 6672UDC     C273383   3.442  13.310  18.005  0.5950  1.0147 -0.2021
 6672UDC     C373384   3.323  13.223  17.950 -0.2636 -0.4012 -0.1255
 6672UDC     C473385   3.195  13.307  17.918  0.3011  1.4657 -0.7690
 6672UDC     C573386   3.136  13.363  18.051 -1.5815  0.4995  0.2746
 6672UDC     C673387   3.041  13.486  18.029 -0.0620 -0.2026  0.7622
 6672UDC     C773388   3.018  13.588  18.143  1.0320  1.0413  0.1890
 6672UDC     C873389   3.057  13.727  18.103 -0.6772 -0.4760 -0.4060
 6672UDC     C973390   3.207  13.758  18.085  0.3997  0.2407 -0.8239
 6672UDC    C1073391   3.238  13.831  17.953  0.0446 -0.0149 -0.2127
 6672UDC    C1173392   3.111  13.910  17.911 -0.2329 -0.5731  0.5060
 6673UDC     C173393  16.884  16.598  11.653 -0.6248  0.4964 -0.3034
 6673UDC     C273394  16.951  16.629  11.512 -0.2327  0.2379 -0.6318
 6673UDC     C373395  16.855  16.618  11.387  1.1422  0.4068  0.8211
 6673UDC     C473396  16.914  16.601  11.247  0.0570  0.6919 -0.0198
 6673UDC     C573397  16.811  16.547  11.147  0.7606 -0.8120 -0.2809
 6673UDC     C673398  16.679  16.618  11.129 -0.4848 -0.9888  0.2684
 6673UDC     C773399  16.572  16.543  11.048  0.2212 -0.3099 -0.0965
 6673UDC     C873400  16.608  16.492  10.909  1.7177  0.4986 -0.0508
 6673UDC     C973401  16.490  16.416  10.843 -0.2778  0.2309 -0.3912
 6673UDC    C1073402  16.397  16.357  10.951 -0.1078  0.3959 -0.9509
 6673UDC    C1173403  16.291  16.288  10.870  0.0127  0.6837  0.0268
 6674UDC     C173404  11.006  10.966   8.033 -0.1624  1.2412 -0.2990
 6674UDC     C273405  10.932  11.092   8.074 -1.3883  0.6781 -0.0906
 6674UDC     C373406  10.962  11.211   7.969  0.3007 -0.4732 -0.9336
 6674UDC     C473407  10.844  11.311   7.940 -0.1632 -0.1458 -0.7879
 6674UDC     C573408  10.850  11.381   7.809  1.1603 -0.4922 -0.3202
 6674UDC     C673409  10.749  11.492   7.791  0.1878  0.0350  0.0279
 6674UDC     C773410  10.790  11.591   7.682 -0.0263  0.4629  0.3976
 6674UDC     C873411  10.669  11.687   7.642 -0.5063  0.5019  0.4795
 6674UDC     C973412  10.681  11.781   7.521  0.2033  0.1017  0.9787
 6674UDC    C1073413  10.793  11.885   7.522 -0.2223 -0.2481 -0.0661
 6674UDC    C1173414  10.784  12.010   7.433 -0.5501  0.0465  0.1960
 6675UDC     C173415   2.011   1.941  18.314 -0.1959  0.1098 -0.5011
 6675UDC     C273416   2.039   1.810  18.240 -0.9093  0.1549  1.0310
 6675UDC     C373417   1.943   1.785  18.122 -0.0088 -0.2888 -0.3068
 6675UDC     C473418   1.957   1.880  18.011  0.2393  0.5188  0.9410
 6675UDC     C573419   2.100   1.924  17.969  0.2833 -0.2767 -0.1071
 6675UDC     C673420   2.168   1.832  17.866  0.8996  0.0867 -1.1098
 6675UDC     C773421   2.313   1.831  17.825 -0.7746 -0.4611 -0.0740
 6675UDC     C873422   2.339   1.717  17.720  0.9790  0.4339 -1.3261
 6675UDC     C973423   2.485   1.703  17.687  0.0284  0.0825  1.3245
 6675UDC    C1073424   2.575   1.819  17.647 -0.1035  0.0453  0.3876
 6675UDC    C1173425   2.699   1.745  17.581  0.1573  0.4724  0.4338
 6676UDC     C173426   1.724  12.709  13.223  0.0320 -0.1445 -0.1893
 6676UDC     C273427   1.660  12.724  13.363 -0.8693  0.1487 -0.3463
 6676UDC     C373428   1.614  12.581  13.416 -0.5288 -0.8452  0.0166
 6676UDC     C473429   1.654  12.595  13.569  1.4295 -0.0856  0.4793
 6676UDC     C573430   1.610  12.731  13.627  0.3239  1.0504  0.5291
 6676UDC     C673431   1.638  12.748  13.775 -0.4473  0.9533 -0.2928
 6676UDC     C773432   1.630  12.615  13.853 -0.3566  0.8680 -0.9087
 6676UDC     C873433   1.489  12.570  13.862 -0.4875  0.0569 -0.1398
 6676UDC     C973434   1.503  12.496  13.989  0.0810 -0.5948 -0.8660
 6676UDC    C1073435   1.589  12.370  13.957  0.6690  0.6776 -0.1078
 6676UDC    C1173436   1.584  12.269  14.071 -0.9962 -0.0556 -0.6629
 6677UDC     C173437  16.864   2.520   2.589 -0.2128  0.4407  0.3904
 6677UDC     C273438  16.991   2.605   2.561 -1.0122  0.4180  1.7825
 6677UDC     C373439  17.047   2.693   2.676 -0.5221  0.2512 -0.8638
 6677UDC     C473440  16.959   2.806   2.728  0.0458 -0.2342 -0.3680
 6677UDC     C573441  17.044   2.866   2.838  0.6747 -0.2833  0.0897
 6677UDC     C673442  17.159   2.960   2.795  0.7036  0.5925 -0.8136
 6677UDC     C773443  17.252   2.993   2.912  0.2709 -0.5597 -0.7416
 6677UDC     C873444  17.369   3.087   2.882  0.3791 -0.1096  0.8369
 6677UDC     C973445  17.332   3.225   2.825 -0.4592 -0.8304  0.6641
 6677UDC    C1073446  17.280   3.316   2.930 -1.0373 -0.3803 -0.3790
 6677UDC    C1173447  17.223   3.449   2.875 -0.5028  0.3375 -0.1026
 6678UDC     C173448   5.872  14.527  11.523  0.4216  0.7652  0.3828
 6678UDC     C273449   5.999  14.472  11.455  0.1822  0.8279  0.6100
 6678UDC     C373450   5.995  14.322  11.411 -0.0511 -0.3187  0.3438
 6678UDC     C473451   6.131  14.254  11.384  0.0876  0.3906  0.3461
 6678UDC     C573452   6.188  14.300  11.252 -0.2053  0.3639 -0.8781
 6678UDC     C673453   6.318  14.233  11.197 -0.5212  0.0401  0.4715
 6678UDC     C773454   6.328  14.084  11.178 -0.6153 -0.3549 -0.7711
 6678UDC     C873455   6.462  14.051  11.129 -0.5041 -0.5613 -0.2536
 6678UDC     C973456   6.537  14.101  11.001  0.1644  0.6029 -0.8954
 6678UDC    C1073457   6.652  14.196  11.027 -0.4389  0.2042  0.8188
 6678UDC    C1173458   6.721  14.252  10.902 -0.5049  0.1829  0.9990
 6679UDC     C173459  14.167  10.317   0.025  0.3073 -0.4577  0.5642
 6679UDC     C273460  14.132  10.264  -0.112 -0.0400 -0.0686  0.0074
 6679UDC     C373461  13.985  10.293  -0.160  0.0009  0.7496  1.0976
 6679UDC     C473462  13.945  10.210  -0.288  0.3166  0.0186 -1.1063
 6679UDC     C573463  13.801  10.237  -0.335  0.6995  0.3328  1.6837
 6679UDC     C673464  13.764  10.123  -0.423 -0.5433 -0.4596  0.9477
 6679UDC     C773465  13.700  10.000  -0.356  1.1704  0.1405 -0.2246
 6679UDC     C873466  13.606   9.915  -0.444 -0.4437 -0.9611 -0.7232
 6679UDC     C973467  13.555   9.784  -0.397 -0.7765  0.2625 -0.0290
 6679UDC    C1073468  13.448   9.730  -0.489 -0.1514  0.7535  0.8378
 6679UDC    C1173469  13.346   9.639  -0.424 -1.4366 -0.4810 -0.4245
 6680UDC     C173470   9.000   9.765   6.631 -0.0808 -0.7542 -0.3994
 6680UDC     C273471   8.929   9.747   6.490 -0.6163 -0.1426  0.2214
 6680UDC     C373472   8.989   9.823   6.368 -0.5054 -0.2980 -0.0321
 6680UDC     C473473   8.896   9.815   6.247  0.1913 -1.3950  0.3915
 6680UDC     C573474   8.919   9.939   6.156 -0.9909 -0.5110  0.0655
 6680UDC     C673475   9.065   9.947   6.105 -0.2332 -0.7535  0.3402
 6680UDC     C773476   9.087  10.061   6.005  0.2353 -0.4934  0.3678
 6680UDC     C873477   9.235  10.097   5.984  0.5938  0.0373 -0.0611
 6680UDC     C973478   9.248  10.212   5.884  0.4420  0.2899  0.8576
 6680UDC    C1073479   9.382  10.273   5.922 -0.9133  0.1600 -0.3540
 6680UDC    C1173480   9.457  10.314   5.791 -1.6099 -0.7043 -0.5252
 6681UDC     C173481   4.029  10.951   0.954 -0.0121  1.0223  0.9394
 6681UDC     C273482   4.114  10.829   1.001  0.9091 -0.3704 -0.7858
 6681UDC     C373483   4.256  10.838   0.923  0.9610 -1.0493 -0.1442
 6681UDC     C473484   4.343  10.958   0.956  0.0696  0.3560 -0.1882
 6681UDC     C573485   4.350  10.987   1.111  0.5339 -0.2916  0.7505
 6681UDC     C673486   4.464  11.089   1.160 -0.4232 -0.0503  0.1748
 6681UDC     C773487   4.537  11.045   1.293  0.4068 -0.2548 -0.4209
 6681UDC     C873488   4.685  11.084   1.288 -0.0898 -0.4962 -0.2662
 6681UDC     C973489   4.744  11.047   1.427 -0.1567 -0.6278 -0.8848
 6681UDC    C1073490   4.893  11.098   1.443 -0.0113  1.4362  1.4691
 6681UDC    C1173491   4.950  11.180   1.322 -0.7285  0.4762 -0.5451
 6682UDC     C173492   3.694   6.173   3.317 -0.0260  1.1745  0.8249
 6682UDC     C273493   3.600   6.052   3.331 -0.0407 -0.0934  0.5499
 6682UDC     C373494   3.686   5.927   3.350 -0.3061  0.5535 -0.0116
 6682UDC     C473495   3.618   5.799   3.307  0.8542  0.1322  0.9220
 6682UDC     C573496   3.677   5.683   3.232  0.4433 -0.1925 -0.6183
 6682UDC     C673497   3.734   5.715   3.088  1.3676  0.6912 -0.0633
 6682UDC     C773498   3.864   5.788   3.094 -0.2378  0.3911  0.0566
 6682UDC     C873499   3.913   5.813   2.945  0.4033 -1.0598  0.2584
 6682UDC     C973500   4.041   5.895   2.945 -0.9937 -0.0690  0.2137
 6682UDC    C1073501   4.121   5.847   3.070 -0.3405 -0.0223  0.5678
 6682UDC    C1173502   4.239   5.943   3.090 -0.2108  0.9103  0.9210
 6683UDC     C173503   9.339  12.320   7.835  0.1942  0.2268  1.3058
 6683UDC     C273504   9.389  12.179   7.870  1.0898  0.2519  0.4660
 6683UDC     C373505   9.413  12.163   8.020 -0.0001  0.8115 -0.2218
 6683UDC     C473506   9.410  12.038   8.109  0.2844  0.3805  1.0604
 6683UDC     C573507   9.540  11.957   8.094  0.0827 -0.1915  0.8408
 6683UDC     C673508   9.530  11.804   8.122  0.4202 -0.7949  0.9338
 6683UDC     C773509   9.525  11.693   8.016  0.0630  0.2101  1.1115
 6683UDC     C873510   9.528  11.548   8.067 -0.5967 -0.2035  0.7858
 6683UDC     C973511   9.648  11.529   8.164 -0.5201  1.4495 -0.7984
 6683UDC    C1073512   9.643  11.426   8.281 -0.1995  0.3023 -0.0770
 6683UDC    C1173513   9.625  11.281   8.226  0.2383 -1.4152  0.2064
 6684UDC     C173514   8.261  13.895   6.400  0.1735 -0.7251  0.4429
 6684UDC     C273515   8.285  13.988   6.519  0.5856  0.8053  0.4237
 6684UDC     C373516   8.392  13.950   6.625 -0.5047 -1.4659 -0.1097
 6684UDC     C473517   8.367  13.800   6.661  0.0792 -0.0549 -0.3498
 6684UDC     C573518   8.476  13.733   6.757 -0.1471  0.6879 -0.7392
 6684UDC     C673519   8.600  13.682   6.688  0.9472  0.5491  0.4918
 6684UDC     C773520   8.720  13.612   6.762 -0.8996  0.4578 -0.4594
 6684UDC     C873521   8.669  13.473   6.812 -0.1464 -0.4705  0.7098
 6684UDC     C973522   8.725  13.397   6.930 -0.2984  0.4204 -0.7207
 6684UDC    C1073523   8.729  13.472   7.060 -1.0030  0.0862 -0.0014
 6684UDC    C1173524   8.799  13.390   7.170  0.8264  1.1833  0.1926
 6685UDC     C173525   1.938  18.796  16.478 -1.1029 -0.1865 -0.3270
 6685UDC     C273526   2.051  18.800  16.584 -0.2272  0.2282  0.7399
 6685UDC     C373527   2.109  18.939  16.635  0.7917  0.0860  0.8671
 6685UDC     C473528   2.254  18.975  16.603  0.0995  0.3093  0.4129
 6685UDC     C573529   2.277  19.096  16.695 -0.0009 -0.3947 -0.0352
 6685UDC     C673530   2.405  19.169  16.648 -0.2373 -0.4602  0.5511
 6685UDC     C773531   2.414  19.302  16.716  0.5496 -0.9228 -0.1302
 6685UDC     C873532   2.406  19.294  16.865  0.0404  1.0186 -0.8778
 6685UDC     C973533   2.547  19.276  16.929  0.1562 -0.3687  0.0778
 6685UDC    C1073534   2.590  19.134  16.982  0.5917  0.0341  1.1436
 6685UDC    C1173535   2.620  19.155  17.136  0.3866 -1.3400  0.4263
 6686UDC     C173536  19.496   3.248  11.122  0.0483  0.8919  0.5414
 6686UDC     C273537  19.626   3.308  11.108 -0.7792  0.5166 -0.4843
 6686UDC     C373538  19.758   3.240  11.157 -0.1056 -0.2474  0.8335
 6686UDC     C473539  19.871   3.293  11.062 -0.8312 -0.3016  0.2826
 6686UDC     C573540  20.006   3.223  11.102  0.5596 -0.6082  0.3862
 6686UDC     C673541  20.115   3.237  10.996  0.4251  0.3965  0.2460
 6686UDC     C773542  20.239   3.163  11.043  1.4646  0.0366  0.5461
 6686UDC     C873543  20.365   3.184  10.953 -0.0028  0.4587  0.7148
 6686UDC     C973544  20.493   3.189  11.042  0.3362  0.6220  0.4288
 6686UDC    C1073545  20.613   3.204  10.953  0.7215 -0.8994  0.1011
 6686UDC    C1173546  20.732   3.238  11.038 -0.0048  0.4828  0.0907
 6687UDC     C173547  18.954   7.294  17.622  0.6110  0.3312 -0.6780
 6687UDC     C273548  18.919   7.295  17.471 -0.4148 -0.3623 -0.1401
 6687UDC     C373549  18.862   7.160  17.421 -0.8179  0.6350 -0.6437
 6687UDC     C473550  18.842   7.158  17.264 -0.3241  0.0226  0.8502
 6687UDC     C573551  18.775   7.296  17.234 -1.1722  0.5145 -1.1414
 6687UDC     C673552  18.727   7.326  17.090  1.6966  0.1072 -1.1688
 6687UDC     C773553  18.811   7.302  16.977 -0.2741  0.6790 -0.2983
 6687UDC     C873554  18.911   7.404  16.933 -0.2766 -0.1824  0.3862
 6687UDC     C973555  18.834   7.541  16.916 -0.3407 -0.2963  0.1379
 6687UDC    C1073556  18.849   7.660  17.009 -0.8160 -0.1698  0.6323
 6687UDC    C1173557  18.867   7.794  16.936  0.9367  1.3868  0.1694
 6688UDC     C173558   3.016   4.442  19.563  0.2615  1.0676  0.3128
 6688UDC     C273559   2.987   4.342  19.446  0.8940 -1.0529 -0.4072
 6688UDC     C373560   2.848   4.279  19.445 -0.0651  0.0444  0.9608
 6688UDC     C473561   2.850   4.158  19.360  0.3049  0.3188  0.0336
 6688UDC     C573562   2.717   4.128  19.286 -0.0221 -0.1870 -0.6072
 6688UDC     C673563   2.732   4.040  19.167 -1.0952 -0.1155 -0.7061
 6688UDC     C773564   2.648   4.062  19.039  1.0529 -0.4187 -0.0538
 6688UDC     C873565   2.691   3.942  18.953 -0.6074 -0.1024  0.3434
 6688UDC     C973566   2.605   3.940  18.825  1.1290  0.5061 -0.9611
 6688UDC    C1073567   2.468   3.905  18.897 -0.0372  0.6133  1.3402
 6688UDC    C1173568   2.417   3.766  18.908 -0.6048  0.4861  0.0230
 6689UDC     C173569   8.197   4.086   9.428 -0.7009  0.2321 -0.0074
 6689UDC     C273570   8.043   4.098   9.409  0.6605  0.0874 -1.4519
 6689UDC     C373571   7.970   4.236   9.400  0.4489 -0.2757  0.1885
 6689UDC     C473572   7.839   4.244   9.320  1.2310  1.0694  0.7103
 6689UDC     C573573   7.741   4.369   9.322 -0.1360  0.4921 -0.7634
 6689UDC     C673574   7.595   4.323   9.316  0.4520 -0.7010  0.0082
 6689UDC     C773575   7.496   4.447   9.327 -0.9066  0.8128 -0.3261
 6689UDC     C873576   7.355   4.414   9.299 -0.0078  0.0326 -0.8489
 6689UDC     C973577   7.280   4.543   9.253 -0.4046  0.1021  0.1123
 6689UDC    C1073578   7.270   4.628   9.386  0.1803 -1.0858  0.2304
 6689UDC    C1173579   7.128   4.699   9.386  1.1286  0.9236  0.6724
 6690UDC     C173580  16.261   5.564   2.436  0.0155 -0.3422  0.3742
 6690UDC     C273581  16.274   5.519   2.292  0.8063 -0.1104 -0.6886
 6690UDC     C373582  16.315   5.626   2.190  0.6113 -0.2161  0.2969
 6690UDC     C473583  16.300   5.552   2.054 -0.1776 -0.2446 -0.7184
 6690UDC     C573584  16.328   5.396   2.042  0.5434  0.7347  0.4711
 6690UDC     C673585  16.481   5.364   2.073  1.1560  0.1459 -0.4821
 6690UDC     C773586  16.552   5.399   1.938 -0.5078  0.1550  0.0527
 6690UDC     C873587  16.697   5.448   1.963  0.5007  0.2522 -1.3774
 6690UDC     C973588  16.738   5.519   1.833  0.3617  1.0034 -1.9149
 6690UDC    C1073589  16.872   5.593   1.837  0.8727  0.2766  1.7272
 6690UDC    C1173590  16.868   5.754   1.837  0.5698  0.5042  0.6161
 6691UDC     C173591   1.293   3.181   3.985 -0.0303 -0.7490  0.0550
 6691UDC     C273592   1.338   3.045   3.917  1.0309  0.1327 -0.4024
 6691UDC     C373593   1.310   2.900   3.967  0.1510 -0.5768 -0.0349
 6691UDC     C473594   1.335   2.784   3.861  1.3913 -0.1553 -0.1676
 6691UDC     C573595   1.314   2.640   3.922 -0.1768  0.5993 -0.9875
 6691UDC     C673596   1.171   2.624   3.986 -1.7660  1.3953 -1.1154
 6691UDC     C773597   1.106   2.495   3.941 -0.4797 -0.6264  0.3495
 6691UDC     C873598   0.957   2.501   3.978 -0.8470 -0.8592 -0.6959
 6691UDC     C973599   0.888   2.365   3.947  0.1791 -0.3177  0.4992
 6691UDC    C1073600   0.902   2.262   4.059 -0.1203 -0.4751 -0.1841
 6691UDC    C1173601   1.047   2.218   4.085 -0.4866 -0.7224  0.3598
 6692UDC     C173602  16.725  14.516  12.103  0.2129  0.5824 -0.7710
 6692UDC     C273603  16.779  14.658  12.107 -0.9346  0.0912  0.6819
 6692UDC     C373604  16.898  14.641  12.009 -0.3988  0.3972 -0.0758
 6692UDC     C473605  16.965  14.778  11.975  0.7910  0.4824  0.1610
 6692UDC     C573606  17.068  14.780  11.854  0.2501 -0.4186 -0.2433
 6692UDC     C673607  17.119  14.919  11.819  0.2464  1.4936 -0.7962
 6692UDC     C773608  17.228  14.929  11.708  0.2341 -0.3439  1.0611
 6692UDC     C873609  17.376  14.901  11.740  0.3832 -0.2039 -0.4144
 6692UDC     C973610  17.463  15.022  11.705 -0.9608 -0.0853  1.1579
 6692UDC    C1073611  17.445  15.049  11.558 -1.4800  0.7360  0.3154
 6692UDC    C1173612  17.556  15.145  11.508 -0.4063  0.9819  0.3267
 6693UDC     C173613  16.501   6.240   6.404 -0.3266  0.7566  0.5817
 6693UDC     C273614  16.543   6.327   6.522 -0.0210 -0.0660 -0.1564
 6693UDC     C373615  16.417   6.392   6.589 -0.9103  0.1358 -0.4581
 6693UDC     C473616  16.426   6.537   6.654  0.0226  0.8335 -0.3645
 6693UDC     C573617  16.468   6.653   6.576  0.1621 -0.5374  1.2737
 6693UDC     C673618  16.357   6.701   6.476 -0.2649 -0.9307 -1.2713
 6693UDC     C773619  16.360   6.847   6.423  0.1296 -1.0456  0.2478
 6693UDC     C873620  16.283   6.843   6.292  0.0737  0.3468  0.1612
 6693UDC     C973621  16.261   6.964   6.194  0.2752  0.0345 -1.2890
 6693UDC    C1073622  16.208   6.930   6.057  0.2130 -0.0570  0.1047
 6693UDC    C1173623  16.196   7.057   5.980  0.7844  0.6327 -0.2351
 6694UDC     C173624   5.542  16.064  17.267  0.3057  0.4727  0.5058
 6694UDC     C273625   5.480  15.923  17.309  0.8237 -1.0279  0.1970
 6694UDC     C373626   5.322  15.935  17.306 -0.3508  0.3814  0.0372
 6694UDC     C473627   5.228  16.035  17.371  1.2905 -0.6308 -0.6069
 6694UDC     C573628   5.157  15.998  17.494  0.4682 -0.9890 -0.0776
 6694UDC     C673629   5.073  16.113  17.530 -0.2361  0.6411  0.0028
 6694UDC     C773630   5.059  16.104  17.683  0.3710 -0.5542 -0.2956
 6694UDC     C873631   4.943  16.187  17.738  0.5152 -0.3264 -0.0139
 6694UDC     C973632   4.823  16.173  17.645  0.4305 -1.0830  0.8532
 6694UDC    C1073633   4.676  16.223  17.674 -0.8947  0.4793 -0.3498
 6694UDC    C1173634   4.608  16.168  17.802 -0.2564 -0.7945  0.0281
 6695UDC     C173635   1.362   3.497  14.419  0.5179 -0.2898  0.3719
 6695UDC     C273636   1.475   3.397  14.427 -0.2742 -0.3935 -0.2461
 6695UDC     C373637   1.606   3.482  14.429 -0.2940  1.1693  0.0737
 6695UDC     C473638   1.738   3.416  14.461 -0.8385  0.5331 -0.6104
 6695UDC     C573639   1.859   3.511  14.442 -0.0411  0.0207 -0.2874
 6695UDC     C673640   1.995   3.452  14.482  1.0906 -0.3449  0.9863
 6695UDC     C773641   2.094   3.564  14.521  0.3550 -0.4359  0.4374
 6695UDC     C873642   2.053   3.640  14.645 -0.7955  0.1222 -0.0836
 6695UDC     C973643   2.181   3.716  14.678  0.0828 -0.2387  1.3453
 6695UDC    C1073644   2.142   3.858  14.707  0.3717 -0.4068 -0.0672
 6695UDC    C1173645   2.078   3.945  14.599 -0.9544  0.2548 -0.5333
 6696UDC     C173646   2.414   3.987   6.123 -0.7339  0.5301 -0.2097
 6696UDC     C273647   2.269   3.934   6.134  0.9013  0.0360 -0.5806
 6696UDC     C373648   2.259   3.794   6.184 -0.5467 -0.1921 -0.1434
 6696UDC     C473649   2.120   3.755   6.234  0.6203 -0.0200 -0.1664
 6696UDC     C573650   2.021   3.724   6.118 -0.4896 -0.0077 -1.2039
 6696UDC     C673651   1.889   3.663   6.174 -0.6458  0.6546  0.0946
 6696UDC     C773652   1.893   3.531   6.245 -0.4224 -0.3695  0.1393
 6696UDC     C873653   1.797   3.522   6.369 -0.7354  0.4433 -0.3129
 6696UDC     C973654   1.817   3.380   6.435 -0.7901  0.1005  0.1785
 6696UDC    C1073655   1.895   3.377   6.569 -0.5886  0.3209  0.0923
 6696UDC    C1173656   1.844   3.466   6.684 -0.9251 -0.2062 -0.2489
 6697UDC     C173657   3.277  19.678  10.215  0.4257 -0.6489 -0.2809
 6697UDC     C273658   3.394  19.763  10.261 -0.0239 -0.2695  0.0825
 6697UDC     C373659   3.535  19.718  10.228 -0.5353 -0.5870 -0.6416
 6697UDC     C473660   3.623  19.732  10.356  0.5844 -0.2804 -1.2803
 6697UDC     C573661   3.776  19.720  10.336  0.4677  0.0891  0.4946
 6697UDC     C673662   3.830  19.839  10.263 -0.1573 -0.0609 -0.2194
 6697UDC     C773663   3.887  19.936  10.358 -0.9661 -0.0099 -0.8475
 6697UDC     C873664   3.959  20.053  10.292  0.2901 -0.1481  0.7168
 6697UDC     C973665   3.896  20.098  10.154 -0.6911 -0.3141 -0.2113
 6697UDC    C1073666   3.821  20.240  10.141 -0.0191  0.4117 -0.2683
 6697UDC    C1173667   3.788  20.295  10.002  0.6751 -0.8865  0.2411
 6698UDC     C173668  14.240   6.531   6.555 -1.0862  0.8981 -1.1307
 6698UDC     C273669  14.136   6.644   6.539  0.2240 -1.0386  0.1689
 6698UDC     C373670  14.053   6.647   6.413 -0.0463  0.3771  0.5066
 6698UDC     C473671  14.022   6.495   6.409 -0.4253  0.7077  0.4914
 6698UDC     C573672  13.883   6.444   6.362  1.1295 -0.3580 -0.2249
 6698UDC     C673673  13.760   6.464   6.452 -0.3691  0.0048 -0.2347
 6698UDC     C773674  13.630   6.415   6.379  0.2447 -0.0048  0.8233
 6698UDC     C873675  13.569   6.527   6.295 -0.6362  0.0753 -0.3343
 6698UDC     C973676  13.582   6.492   6.144 -0.1823 -0.9988  0.5033
 6698UDC    C1073677  13.461   6.521   6.054  0.6945 -0.2341  0.0047
 6698UDC    C1173678  13.335   6.469   6.125  0.8213 -0.4688 -0.5026
 6699UDC     C173679   9.860  19.863  10.647 -0.2097 -0.5278 -0.1363
 6699UDC     C273680   9.888  19.850  10.804 -0.2529 -0.7794  0.0840
 6699UDC     C373681   9.838  19.957  10.897  0.2274 -0.9360  0.1420
 6699UDC     C473682   9.687  19.996  10.907  0.6856  0.4967 -0.7093
 6699UDC     C573683   9.648  20.116  11.000  0.4618  0.9877  0.8482
 6699UDC     C673684   9.536  20.214  10.945  0.4059  1.4920 -0.7085
 6699UDC     C773685   9.597  20.359  10.941 -0.8808 -0.0133  0.2627
 6699UDC     C873686   9.520  20.481  10.879 -0.3339  0.1027 -1.1689
 6699UDC     C973687   9.543  20.522  10.737  0.0011 -0.0080 -0.8406
 6699UDC    C1073688   9.422  20.605  10.672 -0.1017 -0.2973  0.6108
 6699UDC    C1173689   9.393  20.738  10.751  0.9519  0.2599 -0.5470
 6700UDC     C173690  14.221  17.427   9.207 -0.2660  0.6894  0.1277
 6700UDC     C273691  14.176  17.544   9.111  0.3462  0.4547  0.2501
 6700UDC     C373692  14.081  17.643   9.183  0.1150  0.0353  0.5166
 6700UDC     C473693  14.134  17.718   9.313 -0.2466 -1.0775 -0.0478
 6700UDC     C573694  14.060  17.857   9.321 -0.4188  0.4719 -0.5306
 6700UDC     C673695  14.110  17.969   9.221  0.6480  0.0334 -1.0482
 6700UDC     C773696  14.243  18.031   9.288 -0.0970  0.6536 -0.1070
 6700UDC     C873697  14.340  18.108   9.196  0.1706 -0.4687 -0.8196
 6700UDC     C973698  14.483  18.062   9.156  0.0886  0.7032 -0.1745
 6700UDC    C1073699  14.570  18.155   9.077 -0.0003  0.1073  0.3378
 6700UDC    C1173700  14.715  18.108   9.048  0.3313 -0.1553  0.7176
 6701UDC     C173701   3.049   3.966  18.005 -0.1382  0.4402 -0.8177
 6701UDC     C273702   2.914   4.030  18.028 -0.3438 -0.1330 -0.1875
 6701UDC     C373703   2.899   4.179  18.064 -0.5362  0.6206 -0.7988
 6701UDC     C473704   2.991   4.217  18.179  0.6326 -0.9051 -0.4998
 6701UDC     C573705   2.993   4.366  18.239  1.2286  0.4744  0.4646
 6701UDC     C673706   3.044   4.488  18.150 -0.6197 -0.3982  0.5184
 6701UDC     C773707   3.194   4.499  18.150 -0.2690 -0.9144 -1.2015
 6701UDC     C873708   3.240   4.637  18.090 -0.1920  1.1130 -0.7506
 6701UDC     C973709   3.165   4.767  18.124  0.1599 -0.0148 -1.1616
 6701UDC    C1073710   3.194   4.910  18.065 -0.5130  0.1431 -0.0473
 6701UDC    C1173711   3.112   5.025  18.132 -0.7562  0.8158  0.3353
 6702UDC     C173712   0.187   7.024  11.796 -1.4147  0.7983 -0.1527
 6702UDC     C273713   0.091   7.041  11.912 -0.1293 -0.2621  0.1074
 6702UDC     C373714  -0.047   6.980  11.890  0.9351 -0.6264  1.2408
 6702UDC     C473715  -0.153   7.058  11.981 -0.3237  0.4104  0.1263
 6702UDC     C573716  -0.072   7.097  12.105  0.0135 -0.1798  0.5957
 6702UDC     C673717  -0.159   7.096  12.229 -0.1839 -0.2731 -0.8820
 6702UDC     C773718  -0.273   7.006  12.192  0.3840 -0.3334  0.3614
 6702UDC     C873719  -0.403   7.001  12.265 -0.8337  0.3937 -0.5545
 6702UDC     C973720  -0.395   6.886  12.370  0.8420  0.2630 -0.0564
 6702UDC    C1073721  -0.472   6.754  12.336 -0.1742  0.5154  0.6696
 6702UDC    C1173722  -0.518   6.668  12.443  0.4592 -0.1177  0.0465
 6703UDC     C173723   0.105   3.925   6.360  0.3866  1.0111  0.6577
 6703UDC     C273724   0.014   3.865   6.243 -0.4261  0.9975 -1.4609
 6703UDC     C373725   0.080   3.766   6.147 -0.3462  0.2715  0.7863
 6703UDC     C473726   0.107   3.625   6.210  0.5570 -1.2936 -1.2056
 6703UDC     C573727   0.170   3.538   6.102  0.3510  0.7656  0.0033
 6703UDC     C673728   0.198   3.401   6.165  1.2527  0.3509  0.4062
 6703UDC     C773729   0.068   3.320   6.176  0.7663  0.4137  0.0096
 6703UDC     C873730   0.023   3.275   6.029 -0.8200  0.5001 -0.7379
 6703UDC     C973731   0.123   3.158   5.993  0.1733 -0.4612  0.9340
 6703UDC    C1073732   0.170   3.164   5.850  0.1791  0.6342  0.1061
 6703UDC    C1173733   0.269   3.046   5.806 -0.3283 -1.1424  0.4962
 6704UDC     C173734  15.412  17.851   3.220 -1.0634 -0.9145 -0.2357
 6704UDC     C273735  15.433  18.005   3.209 -0.1833 -1.3211 -0.1528
 6704UDC     C373736  15.353  18.034   3.081  1.2004 -0.2325 -0.0332
 6704UDC     C473737  15.354  18.174   3.029  0.9053 -0.4428 -0.1344
 6704UDC     C573738  15.260  18.187   2.903  0.1412  0.4189 -0.2499
 6704UDC     C673739  15.291  18.072   2.799 -0.3092  0.5332  0.1651
 6704UDC     C773740  15.222  18.084   2.662 -0.0428  0.7206  0.0478
 6704UDC     C873741  15.179  17.943   2.627 -0.6430 -0.8844 -0.4491
 6704UDC     C973742  15.070  17.917   2.525 -0.1694 -0.0713  0.5814
 6704UDC    C1073743  15.008  17.774   2.543 -0.6222  0.2024 -1.7447
 6704UDC    C1173744  14.857  17.768   2.528 -0.3055  0.9565 -0.2601
 6705UDC     C173745  12.956  11.731  12.013  1.0952 -0.4591  0.5935
 6705UDC     C273746  12.815  11.717  12.069 -0.0612 -0.7785  0.2427
 6705UDC     C373747  12.743  11.845  12.031  0.7600 -0.1035  0.4393
 6705UDC     C473748  12.769  11.904  11.886 -0.6546 -0.6828  0.9386
 6705UDC     C573749  12.692  12.037  11.865 -0.0574  0.1508  0.2123
 6705UDC     C673750  12.720  12.110  11.732 -0.1493 -0.4848 -0.2001
 6705UDC     C773751  12.695  12.265  11.742  0.1127  1.0040 -0.0602
 6705UDC     C873752  12.783  12.329  11.850  0.3491  0.6704  0.7272
 6705UDC     C973753  12.932  12.299  11.832  0.0524 -0.9248  1.4030
 6705UDC    C1073754  13.019  12.346  11.945 -0.5700  0.9075  0.4056
 6705UDC    C1173755  13.090  12.473  11.911  0.8409 -0.7519  0.4060
 6706UDC     C173756   8.542  11.327  16.144  0.3652  0.3172 -0.0698
 6706UDC     C273757   8.521  11.171  16.138  0.1066  0.2762  0.7438
 6706UDC     C373758   8.645  11.103  16.069  0.1469  0.8268  0.0245
 6706UDC     C473759   8.672  10.972  16.151 -0.2370  0.7763  0.1260
 6706UDC     C573760   8.811  10.905  16.129 -0.2671 -0.9943  0.1274
 6706UDC     C673761   8.818  10.790  16.230  0.3510  0.6455 -0.6840
 6706UDC     C773762   8.961  10.731  16.233 -0.6583 -0.0874  1.2203
 6706UDC     C873763   9.038  10.715  16.098  0.6639 -0.6043 -0.2401
 6706UDC     C973764   9.159  10.620  16.117  0.1547 -0.2999  0.0786
 6706UDC    C1073765   9.150  10.470  16.125 -0.6274  0.0215  0.7811
 6706UDC    C1173766   9.277  10.382  16.139  0.5018  0.1234  0.3812
 6707UDC     C173767   6.160  10.354  12.679 -0.1982  0.2638  0.0338
 6707UDC     C273768   6.107  10.217  12.641 -0.4841  0.1978  0.0642
 6707UDC     C373769   6.003  10.163  12.735  0.4719  0.1439  0.3438
 6707UDC     C473770   5.866  10.203  12.669 -0.0547 -0.3626  0.3626
 6707UDC     C573771   5.764  10.105  12.738 -0.3324  0.1478  1.2823
 6707UDC     C673772   5.631  10.182  12.732 -0.3186 -0.2147 -0.9340
 6707UDC     C773773   5.632  10.313  12.820  0.0295  0.4870  1.3140
 6707UDC     C873774   5.500  10.404  12.820  1.3869 -0.6787 -0.6555
 6707UDC     C973775   5.426  10.449  12.689 -0.3646 -0.0073 -0.8166
 6707UDC    C1073776   5.302  10.525  12.737  0.0252  0.2770 -0.6984
 6707UDC    C1173777   5.198  10.553  12.623 -0.2698  0.4408 -1.1273
 6708UDC     C173778   0.177  19.969   2.556  0.4438 -0.0157  0.1598
 6708UDC     C273779   0.324  20.005   2.599  0.2331 -0.5543 -0.2270
 6708UDC     C373780   0.375  20.142   2.542  0.2889  0.5222  0.3874
 6708UDC     C473781   0.525  20.144   2.574  0.8577 -0.0416 -0.4079
 6708UDC     C573782   0.590  20.256   2.495  1.0127 -0.1161  0.5943
 6708UDC     C673783   0.684  20.365   2.559  0.2001  0.9014 -0.1185
 6708UDC     C773784   0.839  20.345   2.547  0.0858 -1.1267  0.4758
 6708UDC     C873785   0.925  20.434   2.638 -0.0782 -1.1092 -0.2657
 6708UDC     C973786   1.044  20.362   2.708 -0.3214 -0.4820 -0.0186
 6708UDC    C1073787   1.118  20.458   2.804  0.1791  0.1999 -0.9782
 6708UDC    C1173788   1.237  20.388   2.879  0.2473  0.9270  0.5435
 6709UDC     C173789  10.140   0.063   4.470 -0.5133  0.0102 -0.1362
 6709UDC     C273790  10.068   0.016   4.344 -0.0913 -1.7419 -0.7621
 6709UDC     C373791  10.010  -0.127   4.344  0.1827 -0.4949 -0.8110
 6709UDC     C473792   9.905  -0.152   4.236 -0.3935 -0.1815 -0.6297
 6709UDC     C573793   9.796  -0.046   4.261 -0.6704 -0.6280 -0.2594
 6709UDC     C673794   9.681  -0.071   4.363 -0.0055 -0.0801  0.4329
 6709UDC     C773795   9.628  -0.215   4.351 -0.5149  0.4481  0.1780
 6709UDC     C873796   9.492  -0.237   4.422  0.5239  0.4484  0.4168
 6709UDC     C973797   9.513  -0.298   4.566 -0.0756  0.4694  0.3800
 6709UDC    C1073798   9.397  -0.329   4.670  0.5338  0.3900  0.4528
 6709UDC    C1173799   9.443  -0.364   4.806 -0.7979  0.5775 -0.0755
 6710UDC     C173800   0.893   0.825   7.347  0.5289 -0.2137  0.3875
 6710UDC     C273801   0.944   0.778   7.486  0.3183  0.8028  0.4793
 6710UDC     C373802   1.035   0.882   7.543  0.0841 -0.9751  0.1836
 6710UDC     C473803   0.970   0.941   7.664  0.1164 -0.2396  0.0991
 6710UDC     C573804   0.889   1.066   7.632 -0.2570 -0.6762 -0.1957
 6710UDC     C673805   0.755   1.054   7.550  0.2029 -0.2471 -0.4554
 6710UDC     C773806   0.629   1.014   7.631  0.0357  0.4944 -0.6381
 6710UDC     C873807   0.514   1.004   7.528 -0.0518  0.4439 -0.0419
 6710UDC     C973808   0.427   0.879   7.569 -0.1143  0.3083 -0.2850
 6710UDC    C1073809   0.321   0.853   7.458 -1.0875 -1.3095  0.0150
 6710UDC    C1173810   0.187   0.791   7.491  1.4515 -0.1377 -0.8458
 6711UDC     C173811  14.124  12.883  13.547  0.2458  0.8016  1.3827
 6711UDC     C273812  14.155  13.024  13.593 -0.0833 -0.3593  1.0177
 6711UDC     C373813  14.226  13.103  13.476  0.2570 -0.3063 -0.5735
 6711UDC     C473814  14.256  13.256  13.509  0.8696  0.5854  0.0343
 6711UDC     C573815  14.171  13.389  13.467  0.4654  1.1234 -0.1080
 6711UDC     C673816  14.037  13.396  13.551 -0.3242  0.8367 -0.5242
 6711UDC     C773817  14.050  13.432  13.703  0.1004  0.2853  0.3395
 6711UDC     C873818  13.906  13.449  13.763 -0.0579 -0.4775  0.2373
 6711UDC     C973819  13.846  13.594  13.750 -0.8505  0.2746 -1.6668
 6711UDC    C1073820  13.746  13.604  13.865 -0.6681  0.5454 -0.5559
 6711UDC    C1173821  13.827  13.598  13.996  0.4056  0.9742 -0.1752
 6712UDC     C173822   4.494  17.730   6.529 -0.0486 -0.1780  0.1390
 6712UDC     C273823   4.551  17.664   6.649  0.7200  0.0652 -0.3078
 6712UDC     C373824   4.447  17.676   6.760 -0.5302 -0.1891  0.1444
 6712UDC     C473825   4.304  17.666   6.700 -0.0527 -0.7074  0.5856
 6712UDC     C573826   4.211  17.602   6.805 -0.4195 -0.7252  0.0653
 6712UDC     C673827   4.183  17.683   6.933  0.7491 -0.0282  0.0345
 6712UDC     C773828   4.065  17.776   6.944  0.5520 -0.1867  0.1860
 6712UDC     C873829   4.030  17.803   7.092  0.5421 -0.5980 -0.1447
 6712UDC     C973830   4.166  17.821   7.173  0.5400 -0.0956 -1.0611
 6712UDC    C1073831   4.130  17.874   7.312 -0.2740 -0.0823  0.2527
 6712UDC    C1173832   3.987  17.916   7.318  0.1790  1.5953 -0.1338
 6713UDC     C173833  11.540  11.638  17.284 -0.2567  0.3220 -0.2598
 6713UDC     C273834  11.562  11.559  17.155 -0.4120 -0.1601 -1.0210
 6713UDC     C373835  11.700  11.513  17.100  0.1222  0.2221 -0.0668
 6713UDC     C473836  11.761  11.606  16.993 -0.8490 -0.4956  0.5847
 6713UDC     C573837  11.695  11.593  16.857 -0.8225  0.7055  0.1175
 6713UDC     C673838  11.548  11.643  16.843 -0.2721  0.4993  0.6302
 6713UDC     C773839  11.502  11.625  16.697  0.2471 -0.4654  0.0674
 6713UDC     C873840  11.455  11.483  16.663  0.0198  0.3933  0.1871
 6713UDC     C973841  11.368  11.402  16.760 -0.3722 -0.0345  0.2559
 6713UDC    C1073842  11.409  11.334  16.890 -0.0601 -0.4923 -0.0011
 6713UDC    C1173843  11.295  11.243  16.942  1.1579 -0.2549  0.1859
 6714UDC     C173844   1.150   5.874  17.461 -0.6736 -0.1353 -0.8480
 6714UDC     C273845   1.239   5.762  17.516 -0.3459 -1.1474 -0.5423
 6714UDC     C373846   1.317   5.759  17.649 -0.2644 -0.7042  0.2582
 6714UDC     C473847   1.350   5.617  17.695 -0.8855 -0.0895  0.1328
 6714UDC     C573848   1.429   5.609  17.829  0.0358 -0.3103  0.5424
 6714UDC     C673849   1.561   5.686  17.833  0.1805 -0.6722  1.4162
 6714UDC     C773850   1.644   5.670  17.962 -0.2718 -0.3349  0.4056
 6714UDC     C873851   1.719   5.536  17.959 -0.5305  1.0304 -0.5242
 6714UDC     C973852   1.842   5.535  18.057 -0.1748  0.1278  0.1694
 6714UDC    C1073853   1.823   5.565  18.209  0.2393  0.6485  1.5317
 6714UDC    C1173854   1.731   5.461  18.281 -0.8785 -0.4509 -0.4117
 6715UDC     C173855   4.851  11.675  11.806  0.6174 -0.8532 -0.2950
 6715UDC     C273856   4.761  11.793  11.764  0.7719  0.6413 -0.0990
 6715UDC     C373857   4.726  11.800  11.619 -0.1620 -0.0458 -0.3310
 6715UDC     C473858   4.637  11.917  11.577 -0.0845 -0.0766  0.3603
 6715UDC     C573859   4.567  11.901  11.436  0.4743 -0.5259  0.1187
 6715UDC     C673860   4.495  11.776  11.441 -1.1227 -0.6627  0.0120
 6715UDC     C773861   4.388  11.752  11.331  0.1282 -0.7091  0.4336
 6715UDC     C873862   4.284  11.861  11.324 -0.9357 -0.6841 -1.8479
 6715UDC     C973863   4.168  11.827  11.415 -0.0397  0.9148  0.9408
 6715UDC    C1073864   4.095  11.694  11.395  0.7377  0.5070 -0.4949
 6715UDC    C1173865   4.008  11.701  11.262 -0.5677 -0.1707 -0.3426
 6716UDC     C173866  15.597  11.791  16.351 -0.5275  0.5112  0.6499
 6716UDC     C273867  15.485  11.795  16.451  0.4464 -0.0127 -0.3763
 6716UDC     C373868  15.525  11.825  16.589 -0.7741 -1.1677 -0.4109
 6716UDC     C473869  15.594  11.966  16.602 -0.4853 -1.1745 -0.3275
 6716UDC     C573870  15.642  11.979  16.744 -1.1697  0.3993  0.3539
 6716UDC     C673871  15.537  12.002  16.850  0.3209  0.6151  0.3321
 6716UDC     C773872  15.570  12.024  16.999 -0.5105 -0.4295  0.3586
 6716UDC     C873873  15.433  11.997  17.076 -0.3476  0.4840  0.3886
 6716UDC     C973874  15.356  11.868  17.091  0.3121 -0.5060  0.3535
 6716UDC    C1073875  15.299  11.880  17.237 -0.2798  0.0123 -0.8457
 6716UDC    C1173876  15.198  11.768  17.276  0.2748  0.5562  0.1115
 6717UDC     C173877   8.450   9.806   3.179 -0.7707 -1.1516  0.2198
 6717UDC     C273878   8.563   9.911   3.145 -0.4692  1.0450 -0.9193
 6717UDC     C373879   8.697   9.831   3.160 -0.5202 -0.7784 -0.4945
 6717UDC     C473880   8.772   9.889   3.287  0.1445 -0.7099 -0.4362
 6717UDC     C573881   8.883   9.791   3.323  0.2338  0.4591  0.5013
 6717UDC     C673882   8.898   9.774   3.478  0.4553 -0.4277  0.3946
 6717UDC     C773883   8.816   9.656   3.529 -1.2070  1.3029 -0.0116
 6717UDC     C873884   8.666   9.683   3.536 -0.8456  1.0660 -0.6660
 6717UDC     C973885   8.641   9.789   3.643  0.6809  0.2068 -0.8334
 6717UDC    C1073886   8.490   9.812   3.665  0.0616  0.5850  0.4565
 6717UDC    C1173887   8.406   9.787   3.539 -0.5303  0.6827  1.0190
 6718UDC     C173888   8.931   3.949  13.205 -0.9366 -0.1275  0.9303
 6718UDC     C273889   8.843   3.947  13.326  1.5487  0.6838 -0.9943
 6718UDC     C373890   8.935   3.954  13.455 -0.1969  0.1280 -0.3185
 6718UDC     C473891   8.885   4.034  13.575  0.6095 -0.0815  0.5063
 6718UDC     C573892   8.849   4.186  13.561  0.0320  0.1175  0.4011
 6718UDC     C673893   8.954   4.282  13.515  0.2981 -0.8724  0.2789
 6718UDC     C773894   8.902   4.434  13.528  0.4409 -0.2753 -0.9367
 6718UDC     C873895   8.769   4.439  13.454 -0.6577 -0.1531 -0.7424
 6718UDC     C973896   8.776   4.439  13.300  0.4835  0.5542 -0.5999
 6718UDC    C1073897   8.743   4.571  13.239 -0.3246 -0.5271  0.4655
 6718UDC    C1173898   8.863   4.623  13.156 -0.8006 -0.3961  0.4108
 6719UDC     C173899  12.857  12.529  18.686  0.2767 -0.2199 -0.2935
 6719UDC     C273900  12.852  12.613  18.558 -0.5357  0.1328  0.7349
 6719UDC     C373901  12.876  12.509  18.446 -0.1666 -1.0095  0.8391
 6719UDC     C473902  12.860  12.585  18.307 -0.3989 -0.6487  0.2871
 6719UDC     C573903  12.941  12.517  18.192 -1.4594 -1.4836 -0.2896
 6719UDC     C673904  12.930  12.589  18.058  0.1941  0.0098 -0.4027
 6719UDC     C773905  12.854  12.722  18.067 -1.9095 -0.9840  0.6827
 6719UDC     C873906  12.929  12.829  17.972 -0.3368 -0.9753 -0.0867
 6719UDC     C973907  12.859  12.965  17.964  1.1318  0.5697 -0.1459
 6719UDC    C1073908  12.748  12.977  18.070  1.8181  0.2068 -0.2741
 6719UDC    C1173909  12.658  13.103  18.043  0.3438 -0.4121 -0.4648
 6720UDC     C173910  16.548   2.640  19.506  0.0474  0.2390 -0.1110
 6720UDC     C273911  16.473   2.744  19.425 -0.6627  0.1093  0.3948
 6720UDC     C373912  16.557   2.799  19.313 -0.5975  0.4098  0.6800
 6720UDC     C473913  16.481   2.926  19.270 -0.1052 -0.3753  1.2571
 6720UDC     C573914  16.332   2.886  19.275 -0.3141  1.2222  0.2159
 6720UDC     C673915  16.252   2.983  19.186  1.0898  0.2243  0.4005
 6720UDC     C773916  16.119   2.923  19.126 -0.4202 -0.5326 -0.2595
 6720UDC     C873917  16.095   2.788  19.066 -1.1031 -0.4881  0.2664
 6720UDC     C973918  15.958   2.761  19.011  0.4647  0.5758  0.2972
 6720UDC    C1073919  15.921   2.859  18.896  0.5210  0.7777 -0.6010
 6720UDC    C1173920  15.790   2.858  18.821 -0.2410  0.7808 -0.2592
 6721UDC     C173921   6.645   8.320  12.607 -0.1753 -0.1890 -0.4430
 6721UDC     C273922   6.568   8.191  12.633  0.3141 -0.2648 -0.7114
 6721UDC     C373923   6.421   8.229  12.620  0.9361 -0.3613  0.6070
 6721UDC     C473924   6.372   8.336  12.718  0.0306  0.8348 -0.1791
 6721UDC     C573925   6.367   8.294  12.866  0.1492  1.1451  0.5253
 6721UDC     C673926   6.332   8.402  12.972  0.4466  0.2436  0.2500
 6721UDC     C773927   6.189   8.463  12.968  1.2461 -0.0946  0.3562
 6721UDC     C873928   6.177   8.621  12.972  0.1939  0.7214 -0.0551
 6721UDC     C973929   6.292   8.700  12.904  0.7462 -0.1801 -0.6115
 6721UDC    C1073930   6.322   8.846  12.940  0.5144  0.9096 -0.5091
 6721UDC    C1173931   6.424   8.922  12.851  0.2886 -0.1734 -0.7274
 6722UDC     C173932  17.822   3.688   8.094  0.6044 -0.4887 -0.0962
 6722UDC     C273933  17.955   3.756   8.136 -0.8359 -1.6225 -0.6813
 6722UDC     C373934  17.975   3.772   8.288 -0.1674 -1.5819 -0.3695
 6722UDC     C473935  17.994   3.651   8.375  0.0842 -0.2765  0.0554
 6722UDC     C573936  17.870   3.565   8.399 -0.4671  0.5182  1.1964
 6722UDC     C673937  17.763   3.632   8.487  1.1286 -1.1252  0.0046
 6722UDC     C773938  17.816   3.672   8.626  1.2133  1.6772 -0.2109
 6722UDC     C873939  17.695   3.750   8.675  0.3921 -0.0282 -0.5442
 6722UDC     C973940  17.716   3.873   8.764 -0.9876  0.4038 -0.0878
 6722UDC    C1073941  17.597   3.949   8.808  1.0365  0.4925 -0.0863
 6722UDC    C1173942  17.643   4.076   8.876 -0.8735  0.1709 -0.3362
 6723UDC     C173943   6.778  11.525  12.897 -0.6345  0.3523 -1.1329
 6723UDC     C273944   6.837  11.606  12.780 -0.1487  0.4044 -0.2765
 6723UDC     C373945   6.976  11.655  12.805 -0.6905  0.2996  0.5849
 6723UDC     C473946   7.077  11.563  12.734 -0.2204  0.2024 -0.3838
 6723UDC     C573947   7.063  11.582  12.581 -0.0712 -0.5522  0.3387
 6723UDC     C673948   7.124  11.470  12.492  0.7422  0.5309 -0.5678
 6723UDC     C773949   7.044  11.342  12.529 -1.1471  0.5569  0.2595
 6723UDC     C873950   7.030  11.259  12.402 -1.5736 -0.3064  1.4434
 6723UDC     C973951   6.890  11.205  12.379  0.5972 -0.8115 -0.0781
 6723UDC    C1073952   6.869  11.100  12.273 -0.4402 -0.3564 -0.8329
 6723UDC    C1173953   6.877  11.157  12.132  0.8494  0.7400 -0.5610
 6724UDC     C173954  18.207  14.254   9.208 -0.2902 -0.3927 -0.1800
 6724UDC     C273955  18.294  14.200   9.089 -1.1146 -1.0066 -0.3818
 6724UDC     C373956  18.214  14.076   9.056  0.7411  0.8120  0.5237
 6724UDC     C473957  18.064  14.105   9.063  0.0575 -0.1343  0.2570
 6724UDC     C573958  17.986  13.977   9.031  1.9939  1.0115  0.1642
 6724UDC     C673959  17.924  13.890   9.151  0.3000  0.2030 -0.1773
 6724UDC     C773960  17.812  13.788   9.109 -0.5761 -1.0975 -0.6517
 6724UDC     C873961  17.860  13.685   9.017 -0.3842 -0.8236  0.1699
 6724UDC     C973962  17.738  13.629   8.937 -1.1488 -0.4467 -0.2317
 6724UDC    C1073963  17.658  13.514   9.000 -0.0784 -0.0626 -1.2529
 6724UDC    C1173964  17.560  13.578   9.112 -0.0499 -0.1902  0.1741
 6725UDC     C173965  18.977   1.170  12.307 -0.7053 -0.1170 -0.1886
 6725UDC     C273966  18.905   1.110  12.187  0.6751 -0.6087  0.4494
 6725UDC     C373967  18.789   1.203  12.145 -0.2049 -0.0068  1.2603
 6725UDC     C473968  18.852   1.297  12.034 -0.2037  0.3525 -0.4039
 6725UDC     C573969  18.945   1.409  12.074 -0.7110 -0.6640  0.0651
 6725UDC     C673970  18.974   1.507  11.957 -0.1526 -0.5886 -0.5455
 6725UDC     C773971  18.869   1.612  11.920 -0.6859  0.0038  0.1665
 6725UDC     C873972  18.925   1.734  11.855  0.0061 -0.3601 -0.5133
 6725UDC     C973973  18.837   1.829  11.773  0.8821 -0.0929 -0.7768
 6725UDC    C1073974  18.930   1.879  11.669  0.1279 -0.1927  0.1552
 6725UDC    C1173975  19.032   1.974  11.730 -0.1543 -1.6261 -0.5610
 6726UDC     C173976   0.042  11.550   7.837  0.7239  0.6644  0.6850
 6726UDC     C273977  -0.084  11.478   7.786  0.6607  0.0101 -0.1973
 6726UDC     C373978  -0.080  11.387   7.659 -0.0717  0.9939 -0.6924
 6726UDC     C473979  -0.061  11.466   7.529 -0.0714  0.6877  0.7780
 6726UDC     C573980   0.086  11.481   7.493  0.0862  0.3252 -0.3759
 6726UDC     C673981   0.103  11.533   7.352 -0.6422 -0.6100  0.4906
 6726UDC     C773982   0.227  11.626   7.342 -0.0049 -0.7853 -0.6543
 6726UDC     C873983   0.264  11.689   7.197 -0.3260  0.2793 -0.9740
 6726UDC     C973984   0.405  11.763   7.211 -0.4062 -0.4263 -0.2891
 6726UDC    C1073985   0.442  11.852   7.094  0.0124 -0.4218  0.0930
 6726UDC    C1173986   0.582  11.910   7.123  1.0322  0.2837 -0.5142
 6727UDC     C173987   4.908   1.556   5.700  0.7967 -0.0310 -0.6621
 6727UDC     C273988   4.802   1.667   5.696 -0.2460 -0.7740  0.0523
 6727UDC     C373989   4.795   1.773   5.810  0.1797  0.0621 -0.3329
 6727UDC     C473990   4.788   1.906   5.739  0.4003 -0.0300  0.9365
 6727UDC     C573991   4.785   2.023   5.838 -0.6810  0.3577 -0.2802
 6727UDC     C673992   4.744   2.163   5.790  0.1206  0.0986 -0.4078
 6727UDC     C773993   4.708   2.251   5.910 -0.3849  0.0307  0.7061
 6727UDC     C873994   4.609   2.357   5.865  0.2354  0.8570  0.4795
 6727UDC     C973995   4.554   2.482   5.941 -0.2214  0.3738  1.3553
 6727UDC    C1073996   4.423   2.530   5.887 -0.3046  1.1625  0.3210
 6727UDC    C1173997   4.382   2.465   5.750  0.3814  0.7717 -0.3391
 6728UDC     C173998  18.447   4.015   9.234 -0.0955  0.1511 -1.0514
 6728UDC     C273999  18.406   3.989   9.386 -0.2915 -0.1944 -0.7719
 6728UDC     C374000  18.513   4.018   9.487 -0.3626  0.3764 -0.1022
 6728UDC     C474001  18.475   4.036   9.634 -0.1129  0.4424  0.0031
 6728UDC     C574002  18.592   4.063   9.732 -0.2078 -0.2878  0.7286
 6728UDC     C674003  18.556   4.031   9.879 -0.5387 -0.2116 -0.4992
 6728UDC     C774004  18.665   4.055   9.983 -0.7303  0.2262 -0.9968
 6728UDC     C874005  18.621   4.045  10.130 -0.4808  0.5317  0.1021
 6728UDC     C974006  18.473   4.074  10.154  0.2956 -0.9978 -0.2754
 6728UDC    C1074007  18.433   4.222  10.173  1.0432 -0.2903 -0.8695
 6728UDC    C1174008  18.403   4.327  10.065  0.7568  0.7504  0.1002
 6729UDC     C174009   9.848  13.842   8.008 -0.8701  0.8967  0.4545
 6729UDC     C274010   9.814  13.875   8.154  0.6201 -0.0267 -0.6213
 6729UDC     C374011   9.661  13.876   8.198 -1.0733 -0.2117 -0.6471
 6729UDC     C474012   9.579  13.996   8.143  0.2975  0.1621  0.0053
 6729UDC     C574013   9.436  13.999   8.200  0.7511  1.6439 -0.3133
 6729UDC     C674014   9.434  14.033   8.344  0.1881  0.1981  0.4907
 6729UDC     C774015   9.300  14.023   8.411 -1.1991  0.7815  1.0260
 6729UDC     C874016   9.323  13.974   8.552  0.1795 -0.3718  0.6295
 6729UDC     C974017   9.199  13.955   8.635  1.4635 -1.1863 -0.3775
 6729UDC    C1074018   9.242  13.927   8.774  0.9482 -0.0589 -0.2084
 6729UDC    C1174019   9.271  13.779   8.785  1.3783  0.7683  0.1233
 6730UDC     C174020   9.993   0.289   3.896  1.4353  0.9237 -1.5829
 6730UDC     C274021   9.927   0.386   3.808 -0.4179 -1.1986  0.6651
 6730UDC     C374022   9.926   0.353   3.656 -0.3366 -0.5452  0.2970
 6730UDC     C474023   9.902   0.475   3.558 -0.2922  0.1067  0.2969
 6730UDC     C574024   9.778   0.553   3.610 -0.3144  1.1309  0.4999
 6730UDC     C674025   9.755   0.699   3.557  0.3523  1.1545  0.7215
 6730UDC     C774026   9.649   0.776   3.633  1.3003 -0.6371 -0.0606
 6730UDC     C874027   9.660   0.766   3.787  0.5408  0.2453  0.6998
 6730UDC     C974028   9.556   0.845   3.864  0.0230  0.2021  0.5917
 6730UDC    C1074029   9.599   0.875   4.014 -0.3198 -0.5605  0.5025
 6730UDC    C1174030   9.734   0.936   4.021  0.6532  0.4859 -0.5010
 6731UDC     C174031   0.707  16.266   3.001 -0.6528  0.7392 -0.9118
 6731UDC     C274032   0.691  16.199   2.865  0.7540 -1.0955 -1.2046
 6731UDC     C374033   0.796  16.242   2.771  0.1627 -0.2484  0.5481
 6731UDC     C474034   0.775  16.178   2.636  0.3161  1.0523  0.1435
 6731UDC     C574035   0.837  16.041   2.627 -0.1267 -0.5771 -0.8226
 6731UDC     C674036   0.928  16.031   2.500 -0.8172  0.3661  0.0475
 6731UDC     C774037   0.990  15.891   2.496 -1.0091  0.8146  0.3352
 6731UDC     C874038   1.137  15.912   2.493  0.4622 -0.3730  0.5142
 6731UDC     C974039   1.186  15.983   2.622  1.0120  0.3865 -0.5187
 6731UDC    C1074040   1.345  15.980   2.633  0.7378  0.4279  0.3908
 6731UDC    C1174041   1.433  16.082   2.566 -0.8748 -0.0460 -0.4980
 6732UDC     C174042  18.446  11.324  17.558 -0.5015 -0.4660  0.4042
 6732UDC     C274043  18.531  11.453  17.559 -0.1425  0.4530 -0.1129
 6732UDC     C374044  18.677  11.432  17.514  0.6031  0.5348  1.1308
 6732UDC     C474045  18.790  11.528  17.562  0.0245 -0.1177 -0.3562
 6732UDC     C574046  18.749  11.665  17.504  0.0821 -0.3179 -0.0803
 6732UDC     C674047  18.806  11.791  17.574  0.4069 -0.6039 -0.1726
 6732UDC     C774048  18.759  11.907  17.483 -0.1738  0.3569 -0.2321
 6732UDC     C874049  18.829  12.042  17.470 -0.5295 -0.0918  0.2705
 6732UDC     C974050  18.754  12.152  17.394 -0.2396 -0.4595 -0.0880
 6732UDC    C1074051  18.631  12.220  17.468  1.1150  0.3891  0.1751
 6732UDC    C1174052  18.674  12.309  17.576 -1.7515  0.2484  0.4008
 6733UDC     C174053   8.169  17.983  10.713 -0.1014  1.3663  0.2939
 6733UDC     C274054   8.201  17.903  10.838 -0.3487 -0.3217  1.1580
 6733UDC     C374055   8.143  17.954  10.975 -0.1772  0.3160  0.1329
 6733UDC     C474056   8.036  17.859  11.038  1.1336 -0.2653  1.7646
 6733UDC     C574057   8.083  17.711  11.055 -0.3953 -0.6288  0.3799
 6733UDC     C674058   8.207  17.714  11.146 -0.0399 -0.1048  0.1304
 6733UDC     C774059   8.303  17.590  11.131  0.4020  0.0256  1.2604
 6733UDC     C874060   8.374  17.585  11.265 -0.4703  0.2857 -0.5056
 6733UDC     C974061   8.338  17.469  11.355 -0.0387  0.4700 -0.0606
 6733UDC    C1074062   8.415  17.491  11.480 -1.1671  0.2306 -0.7067
 6733UDC    C1174063   8.557  17.429  11.458 -0.9819  0.2955  0.9511
 6734UDC     C174064  11.319  18.337   4.344  0.1493  0.0732 -0.1776
 6734UDC     C274065  11.168  18.309   4.310 -0.2212  1.1252 -0.7173
 6734UDC     C374066  11.084  18.296   4.437  0.3133  0.5384  0.0995
 6734UDC     C474067  11.035  18.427   4.474  0.4790 -0.5971 -0.7403
 6734UDC     C574068  10.968  18.510   4.368  0.4064  0.0403 -1.2592
 6734UDC     C674069  11.049  18.639   4.369  0.3053 -0.5988 -0.0250
 6734UDC     C774070  11.017  18.733   4.251  0.3710  0.1693 -0.0799
 6734UDC     C874071  10.875  18.804   4.249  0.6281  0.2051  0.2951
 6734UDC     C974072  10.879  18.907   4.135 -0.4655 -1.0571 -0.4326
 6734UDC    C1074073  10.848  18.826   3.999 -0.2319 -0.0740 -0.7121
 6734UDC    C1174074  10.885  18.914   3.880  0.0946 -0.0253  0.4726
 6735UDC     C174075  18.411   1.423   7.620  0.2442 -0.6301 -0.1694
 6735UDC     C274076  18.281   1.479   7.690  0.5351  0.2110 -0.2585
 6735UDC     C374077  18.207   1.607   7.633 -0.1029 -0.3610  0.8451
 6735UDC     C474078  18.153   1.684   7.750  0.1751 -0.2898  0.5821
 6735UDC     C574079  18.075   1.593   7.847  0.8919 -0.0695  0.3142
 6735UDC     C674080  17.946   1.657   7.903  0.9465  0.5257 -0.8622
 6735UDC     C774081  17.876   1.563   7.995 -1.0145  0.8064 -0.0726
 6735UDC     C874082  17.759   1.643   8.067  0.3694 -0.0288  0.2064
 6735UDC     C974083  17.799   1.756   8.158  0.6915 -0.2136 -0.7187
 6735UDC    C1074084  17.918   1.722   8.255 -0.4656 -0.5320  0.3261
 6735UDC    C1174085  17.835   1.661   8.365  0.1850  0.8486 -0.9197
 6736UDC     C174086   0.420   5.737  18.772 -0.6929  0.6065  0.3740
 6736UDC     C274087   0.525   5.840  18.826  0.2163  0.8912  0.4531
 6736UDC     C374088   0.467   5.968  18.767 -0.3513  0.6846 -0.1119
 6736UDC     C474089   0.529   5.981  18.623  0.7085  0.5836  0.2829
 6736UDC     C574090   0.521   6.105  18.536 -0.7050 -0.0256 -0.4939
 6736UDC     C674091   0.625   6.213  18.538 -1.0836  0.0956 -0.5105
 6736UDC     C774092   0.662   6.307  18.419  0.7681 -0.2104 -0.5156
 6736UDC     C874093   0.722   6.216  18.307  0.4251 -0.3690  0.1599
 6736UDC     C974094   0.714   6.281  18.170 -0.8761  0.8984  0.7411
 6736UDC    C1074095   0.595   6.373  18.140 -0.8167 -0.1084  0.8748
 6736UDC    C1174096   0.598   6.524  18.148 -0.1159  0.7144 -0.2428
 6737UDC     C174097  16.879   4.410   5.050 -0.6876 -0.2709 -0.2466
 6737UDC     C274098  16.966   4.502   4.953 -0.6259  0.7201  0.2570
 6737UDC     C374099  16.900   4.582   4.843  0.2926  0.7713  0.9071
 6737UDC     C474100  16.942   4.542   4.701  0.4738 -0.4495  1.4599
 6737UDC     C574101  16.864   4.634   4.601  0.4001  0.3129 -0.2689
 6737UDC     C674102  16.900   4.614   4.453  0.0148  0.1686 -0.3773
 6737UDC     C774103  16.877   4.731   4.348  0.1018 -0.7138 -1.0234
 6737UDC     C874104  16.824   4.698   4.212  0.1664  0.4535 -0.9211
 6737UDC     C974105  16.820   4.825   4.128 -0.8574  0.0049  0.7856
 6737UDC    C1074106  16.734   4.787   4.004 -0.4386  0.4734  1.3936
 6737UDC    C1174107  16.754   4.872   3.882  0.3020  1.0446 -0.2808
 6738UDC     C174108  17.609  15.565  15.672 -0.2937  1.1202  0.6572
 6738UDC     C274109  17.494  15.605  15.772  0.1879 -0.1562 -0.0747
 6738UDC     C374110  17.518  15.724  15.868 -0.0802 -0.7826  0.7680
 6738UDC     C474111  17.594  15.697  15.996 -0.5074  0.9409 -0.4355
 6738UDC     C574112  17.515  15.688  16.131 -0.7394 -0.4267  0.7684
 6738UDC     C674113  17.428  15.805  16.166  1.2175 -0.0831 -0.4850
 6738UDC     C774114  17.495  15.931  16.221 -0.3889  0.4180  0.7144
 6738UDC     C874115  17.473  16.045  16.122 -0.7107  0.2949  0.1428
 6738UDC     C974116  17.568  16.154  16.168  0.0838  0.0905 -0.1083
 6738UDC    C1074117  17.574  16.200  16.310  0.1514 -0.6793 -0.4760
 6738UDC    C1174118  17.677  16.309  16.345 -1.0490 -0.2916  0.6079
 6739UDC     C174119  17.337   0.559  12.503 -0.0002 -0.0256 -0.0088
 6739UDC     C274120  17.266   0.621  12.628 -0.2952 -0.6082  0.1195
 6739UDC     C374121  17.154   0.554  12.705 -0.1133 -1.3526 -0.0220
 6739UDC     C474122  17.059   0.646  12.790  0.1470  0.2439  0.3461
 6739UDC     C574123  17.016   0.786  12.739  0.7406 -0.9180 -0.1833
 6739UDC     C674124  16.898   0.857  12.816  0.1126  0.1925  0.2522
 6739UDC     C774125  16.869   1.007  12.777 -0.9227 -0.3588  0.7700
 6739UDC     C874126  16.734   1.057  12.832 -0.6930 -0.3494 -0.1034
 6739UDC     C974127  16.696   1.190  12.763 -0.9464 -0.3105 -0.4007
 6739UDC    C1074128  16.631   1.276  12.871 -1.6295 -0.1864 -1.0305
 6739UDC    C1174129  16.741   1.325  12.968 -0.5328  1.2036  0.2708
 6740UDC     C174130  17.060  13.687   9.690 -0.4163 -0.1128 -0.8427
 6740UDC     C274131  17.166  13.674   9.796  0.2650 -1.2498  0.2096
 6740UDC     C374132  17.286  13.754   9.771 -0.9451  0.3597  0.0176
 6740UDC     C474133  17.371  13.708   9.654 -0.1383 -0.2456 -0.6784
 6740UDC     C574134  17.466  13.820   9.602  1.0269 -1.2482  0.3971
 6740UDC     C674135  17.596  13.846   9.687  0.2836 -0.1946  0.0402
 6740UDC     C774136  17.573  13.856   9.844 -0.3024 -0.9245  0.4346
 6740UDC     C874137  17.707  13.907   9.916  0.5442 -0.4424 -0.3553
 6740UDC     C974138  17.677  13.972  10.050 -0.0753  0.9181 -0.5456
 6740UDC    C1074139  17.798  14.000  10.141  0.3750 -1.0618 -1.3097
 6740UDC    C1174140  17.855  14.136  10.096 -0.2674  0.4378 -0.6629
 6741UDC     C174141  19.688   5.716  13.381 -0.6322  1.0763  0.5174
 6741UDC     C274142  19.682   5.780  13.515  0.1419 -0.5998  1.3603
 6741UDC     C374143  19.809   5.771  13.602  0.0353  0.3699  0.7068
 6741UDC     C474144  19.830   5.621  13.643  0.2238  0.2282  0.6863
 6741UDC     C574145  19.771   5.579  13.774  1.4360  0.0140  0.4568
 6741UDC     C674146  19.769   5.430  13.805  0.1392 -0.2139 -0.2246
 6741UDC     C774147  19.751   5.330  13.688  0.1485 -1.3177 -0.0530
 6741UDC     C874148  19.609   5.310  13.633 -0.0986  0.5976  0.5735
 6741UDC     C974149  19.603   5.244  13.496 -0.4431  0.5754 -0.0320
 6741UDC    C1074150  19.464   5.220  13.433 -0.1251  1.0540  0.4866
 6741UDC    C1174151  19.437   5.135  13.300  0.0510  0.0214 -0.0428
 6742UDC     C174152  13.973  17.250   8.419 -0.1506  0.1361 -0.0461
 6742UDC     C274153  14.044  17.348   8.318 -0.6203 -0.2190 -0.4869
 6742UDC     C374154  13.977  17.476   8.283  0.9698 -0.7354  0.3989
 6742UDC     C474155  13.833  17.491   8.212  0.5075 -0.1961 -0.8981
 6742UDC     C574156  13.818  17.534   8.067 -0.5038  0.1911  0.5714
 6742UDC     C674157  13.692  17.601   8.028  0.8136 -0.0909  0.3034
 6742UDC     C774158  13.654  17.570   7.878 -0.9522  0.3614 -0.6403
 6742UDC     C874159  13.739  17.628   7.760  0.3853 -0.1320  0.2836
 6742UDC     C974160  13.691  17.627   7.611 -0.6759 -0.3090  0.0544
 6742UDC    C1074161  13.763  17.746   7.542  0.3046  0.7172 -0.2191
 6742UDC    C1174162  13.703  17.885   7.546  0.0468 -0.3190 -0.4356
 6743UDC     C174163  14.647   1.350  11.624 -0.6407 -0.8265  0.4304
 6743UDC     C274164  14.555   1.261  11.543  1.2540  1.2452  0.7478
 6743UDC     C374165  14.607   1.117  11.545  0.0580  0.6781  0.5955
 6743UDC     C474166  14.488   1.027  11.569  0.4183 -0.8433 -0.3698
 6743UDC     C574167  14.394   1.033  11.457 -0.0558  0.1728  1.0979
 6743UDC     C674168  14.284   0.929  11.470  0.2131  0.8100 -0.0211
 6743UDC     C774169  14.140   0.979  11.510  0.5043  0.6730 -0.5289
 6743UDC     C874170  14.025   0.910  11.438 -0.0094 -0.6327  0.7653
 6743UDC     C974171  14.049   0.899  11.286 -0.5377 -0.3418  0.2099
 6743UDC    C1074172  13.941   0.821  11.208 -0.6328 -0.3794 -0.6083
 6743UDC    C1174173  13.794   0.864  11.242 -0.3612 -0.6213 -0.3950
 6744UDC     C174174  19.220   6.607   4.194  0.9223  0.1684  0.4530
 6744UDC     C274175  19.156   6.476   4.236  0.0214  0.6007  0.1903
 6744UDC     C374176  19.100   6.465   4.376  0.9360 -0.3632 -0.7142
 6744UDC     C474177  18.991   6.361   4.407 -0.2826  0.5603 -0.4326
 6744UDC     C574178  18.944   6.334   4.546 -0.6628 -0.3678  0.0718
 6744UDC     C674179  18.846   6.215   4.570 -0.3573  0.5859 -0.9108
 6744UDC     C774180  18.914   6.084   4.533  0.3618 -1.1937 -0.2960
 6744UDC     C874181  19.042   6.044   4.610  0.1243 -1.2509 -0.0652
 6744UDC     C974182  19.084   5.904   4.564  0.5536 -0.8960  0.3997
 6744UDC    C1074183  19.240   5.888   4.576 -0.1361 -0.1095  0.5190
 6744UDC    C1174184  19.265   5.736   4.519  0.6371  1.1799  0.1075
 6745UDC     C174185  17.824  18.792   9.221 -0.5480  0.5421  0.7914
 6745UDC     C274186  17.742  18.848   9.337  0.7809 -0.3084  0.1948
 6745UDC     C374187  17.663  18.979   9.318  0.1948  0.4874 -0.1053
 6745UDC     C474188  17.746  19.102   9.350  0.3935 -0.2275 -0.0044
 6745UDC     C574189  17.656  19.226   9.353  0.5871 -0.1446  0.0652
 6745UDC     C674190  17.671  19.301   9.219  0.8968  0.1432  0.3289
 6745UDC     C774191  17.579  19.424   9.194 -0.2801 -1.1761  0.1982
 6745UDC     C874192  17.616  19.476   9.050  0.0927 -0.5118 -0.0145
 6745UDC     C974193  17.755  19.436   9.012 -0.2497 -0.0087  0.1805
 6745UDC    C1074194  17.778  19.409   8.863  0.6448  0.7487 -0.1614
 6745UDC    C1174195  17.720  19.274   8.819 -0.5362  0.0950 -0.3635
 6746UDC     C174196  14.949   9.366   5.414  0.1961  0.1879 -0.6599
 6746UDC     C274197  14.828   9.279   5.437  0.8549  0.7045 -0.7141
 6746UDC     C374198  14.803   9.241   5.591 -0.9319 -0.6340 -0.0152
 6746UDC     C474199  14.912   9.157   5.658  0.7722  0.3007 -0.1097
 6746UDC     C574200  14.912   9.157   5.808  0.7772  1.8615  0.1481
 6746UDC     C674201  14.950   9.288   5.882  0.0557 -0.6147 -0.3567
 6746UDC     C774202  14.889   9.288   6.024 -0.4831 -0.0045  0.4626
 6746UDC     C874203  14.962   9.368   6.126 -0.2154  0.6536 -0.0268
 6746UDC     C974204  14.961   9.509   6.068  0.7101 -0.3067 -0.0722
 6746UDC    C1074205  14.958   9.605   6.187 -0.1026 -0.5485 -1.5701
 6746UDC    C1174206  14.840   9.627   6.277 -0.6657 -0.2309 -0.1037
 6747UDC     C174207   3.215  16.160  15.825 -0.9456 -0.0084 -0.5797
 6747UDC     C274208   3.082  16.102  15.784 -0.4657 -0.5202  0.4533
 6747UDC     C374209   3.067  15.976  15.694 -0.2403 -0.0840 -0.1264
 6747UDC     C474210   2.928  15.985  15.617  0.7043  0.6375 -0.5766
 6747UDC     C574211   2.901  15.905  15.493  1.2525 -0.4988 -0.6158
 6747UDC     C674212   2.912  15.753  15.534  0.4558 -0.4764  0.3269
 6747UDC     C774213   2.791  15.675  15.590 -0.0162 -0.0028  0.4321
 6747UDC     C874214   2.833  15.530  15.631  0.3239 -0.2495 -0.2279
 6747UDC     C974215   2.728  15.420  15.636  0.2694  0.5100 -0.6402
 6747UDC    C1074216   2.773  15.276  15.658 -0.8623 -0.3142 -1.7197
 6747UDC    C1174217   2.655  15.173  15.638  0.6578  0.4600 -1.3716
 6748UDC     C174218  19.081   8.452   0.311 -0.7753 -1.0710 -0.0871
 6748UDC     C274219  19.128   8.554   0.412 -0.1156 -0.2132  0.0100
 6748UDC     C374220  19.189   8.676   0.353 -0.3698  0.9236 -0.0771
 6748UDC     C474221  19.096   8.745   0.257  1.4488  0.2824  0.0651
 6748UDC     C574222  19.139   8.897   0.233 -0.2576  0.4588 -0.2835
 6748UDC     C674223  19.293   8.897   0.213 -0.2359  0.8785  1.2808
 6748UDC     C774224  19.360   9.007   0.127  0.1121  0.5781 -0.1750
 6748UDC     C874225  19.514   9.017   0.157  0.5723 -0.3968 -0.3047
 6748UDC     C974226  19.591   9.133   0.092 -0.4418  0.0396 -0.4065
 6748UDC    C1074227  19.714   9.160   0.189  0.3136  1.9778  0.5982
 6748UDC    C1174228  19.795   9.286   0.176  0.7660  0.8406  0.4725
 6749UDC     C174229  18.839  17.823  18.500 -0.6373 -0.0693  1.4268
 6749UDC     C274230  18.689  17.802  18.447 -0.1121  0.1736 -0.5584
 6749UDC     C374231  18.678  17.674  18.365  0.3217 -0.3476  0.4903
 6749UDC     C474232  18.542  17.604  18.338  0.0530 -0.4408  0.2787
 6749UDC     C574233  18.474  17.582  18.196  0.5032  1.2673 -0.3226
 6749UDC     C674234  18.348  17.652  18.149 -0.4913  0.5700  0.2991
 6749UDC     C774235  18.279  17.596  18.028  0.1179 -0.1323  0.1032
 6749UDC     C874236  18.163  17.678  17.971  0.3667 -0.6884 -0.6548
 6749UDC     C974237  18.074  17.754  18.066 -0.7175  0.5752  0.4086
 6749UDC    C1074238  17.965  17.819  17.989  0.7965 -1.2189 -1.1322
 6749UDC    C1174239  17.845  17.724  17.959  0.1174 -0.6702 -1.1891
 6750UDC     C174240  12.342  19.043  12.197 -0.6470 -0.2506 -0.4436
 6750UDC     C274241  12.469  19.082  12.274  0.8348 -0.5251  0.4819
 6750UDC     C374242  12.421  19.099  12.416  0.1352  0.3123  0.0329
 6750UDC     C474243  12.422  19.249  12.458  0.9094  0.0946  0.2448
 6750UDC     C574244  12.384  19.276  12.605  1.3840  0.2368 -0.0790
 6750UDC     C674245  12.474  19.253  12.726 -0.4827  0.0673  0.6966
 6750UDC     C774246  12.612  19.321  12.724 -0.0273 -0.6959  0.5533
 6750UDC     C874247  12.699  19.327  12.853  0.6820 -0.3749  0.2876
 6750UDC     C974248  12.629  19.414  12.959 -0.0303  0.5223  1.0581
 6750UDC    C1074249  12.615  19.559  12.896 -0.2330  0.6239  0.2657
 6750UDC    C1174250  12.748  19.623  12.891 -0.6474 -0.4620  0.1714
 6751UDC     C174251   0.410  14.536   9.763 -0.0591 -0.3995 -1.3028
 6751UDC     C274252   0.267  14.489   9.731  0.3641 -0.2426  0.1572
 6751UDC     C374253   0.249  14.425   9.598  0.0782  0.2651 -0.2476
 6751UDC     C474254   0.118  14.341   9.586 -0.5335 -0.0162 -1.0079
 6751UDC     C574255   0.086  14.269   9.715 -0.0377  0.3491  0.7754
 6751UDC     C674256  -0.032  14.177   9.712  0.7322 -1.2258 -0.4320
 6751UDC     C774257   0.000  14.035   9.773  0.3267  0.4993  0.8899
 6751UDC     C874258  -0.135  13.958   9.788 -0.3172  0.1090  0.3141
 6751UDC     C974259  -0.211  13.961   9.652 -0.2495  0.4875 -0.3112
 6751UDC    C1074260  -0.344  13.889   9.671  0.1963  0.6708  1.1504
 6751UDC    C1174261  -0.429  13.896   9.546 -0.3962 -0.0471  1.1722
 6752UDC     C174262  10.821   9.929   5.425 -0.0114  0.0077  0.2927
 6752UDC     C274263  10.902   9.792   5.423 -0.0147  0.5027 -0.2511
 6752UDC     C374264  11.025   9.783   5.329 -0.7244  0.0448 -0.5097
 6752UDC     C474265  11.108   9.909   5.327  0.1076 -0.3646 -0.0249
 6752UDC     C574266  11.225   9.890   5.231  0.1451 -1.3135  1.3183
 6752UDC     C674267  11.264  10.001   5.120  0.4652  0.5900 -0.8862
 6752UDC     C774268  11.144  10.030   5.023  0.3049  0.6018  0.0986
 6752UDC     C874269  11.118  10.166   4.966  0.6689  0.5008 -0.5905
 6752UDC     C974270  11.004  10.174   4.861 -0.0890 -0.0891  0.1316
 6752UDC    C1074271  10.999  10.054   4.774  0.1947 -0.9074  0.5404
 6752UDC    C1174272  10.856  10.012   4.733  0.1745  0.7511  0.1188
 6753UDC     C174273  17.435   6.695   6.199  0.0967  1.0049  0.4051
 6753UDC     C274274  17.384   6.825   6.148  0.1869  0.3638 -0.4654
 6753UDC     C374275  17.462   6.896   6.044 -0.6493  0.1513  0.4128
 6753UDC     C474276  17.386   7.028   5.992  0.1830 -0.0334  0.2422
 6753UDC     C574277  17.484   7.141   5.952  0.6162  0.4273 -0.3448
 6753UDC     C674278  17.406   7.240   5.877 -0.4129  0.6478  0.4354
 6753UDC     C774279  17.275   7.181   5.835 -0.0355  1.0806  0.1142
 6753UDC     C874280  17.242   7.234   5.692 -0.6430  0.0009  0.2952
 6753UDC     C974281  17.334   7.172   5.582 -0.9335  0.0354  0.0312
 6753UDC    C1074282  17.270   7.089   5.467  0.1849 -1.0840 -0.1648
 6753UDC    C1174283  17.364   6.994   5.376 -0.6640  0.0575  0.0573
 6754UDC     C174284  17.052  10.487  17.883  0.1050 -0.0021 -0.8822
 6754UDC     C274285  17.000  10.413  17.760  0.3666  0.0731 -0.3800
 6754UDC     C374286  17.054  10.285  17.696  0.4878  0.5435 -0.9897
 6754UDC     C474287  16.995  10.163  17.761 -0.0165  0.2020 -0.8345
 6754UDC     C574288  17.095  10.042  17.734  0.9227 -0.0110  0.0131
 6754UDC     C674289  17.134   9.965  17.858 -0.6328  0.1146  0.0561
 6754UDC     C774290  17.212  10.029  17.973  0.8269  0.5619 -1.0192
 6754UDC     C874291  17.339  10.092  17.939  0.3487  0.6623  0.2877
 6754UDC     C974292  17.455   9.991  17.921  0.5450  0.6670 -0.6411
 6754UDC    C1074293  17.577  10.054  17.862  1.0115  0.7905 -0.6509
 6754UDC    C1174294  17.697   9.957  17.836 -0.3761 -0.4497  0.6369
 6755UDC     C174295  10.308   4.699   6.489 -0.6801  0.4916  0.0349
 6755UDC     C274296  10.201   4.794   6.453  0.6515  0.8687  0.5341
 6755UDC     C374297  10.246   4.946   6.447  0.2396  1.7097 -0.3691
 6755UDC     C474298  10.287   5.008   6.585 -0.0595 -0.4159 -0.5880
 6755UDC     C574299  10.305   5.156   6.599 -0.4478  0.9104  1.3658
 6755UDC     C674300  10.250   5.226   6.723 -0.0407  0.5613 -0.2090
 6755UDC     C774301  10.350   5.338   6.761  0.1947 -0.4316 -0.6992
 6755UDC     C874302  10.448   5.395   6.654  0.5605 -0.4113 -0.5468
 6755UDC     C974303  10.472   5.542   6.700 -0.2090 -0.9642  0.1817
 6755UDC    C1074304  10.534   5.662   6.627 -0.4735  0.1145  0.5603
 6755UDC    C1174305  10.481   5.800   6.671 -0.3840 -0.3378  0.0891
 6756UDC     C174306  18.161  17.356  14.969  0.3116  0.4240  0.0228
 6756UDC     C274307  18.137  17.461  15.083  0.6296 -0.4427  1.3415
 6756UDC     C374308  18.191  17.598  15.045 -0.5878 -0.5343  0.0890
 6756UDC     C474309  18.084  17.710  15.043 -0.6827 -0.2460 -0.3375
 6756UDC     C574310  18.137  17.853  15.010 -0.2214 -1.3602 -0.0928
 6756UDC     C674311  18.221  17.859  14.889 -0.0103 -0.7323 -0.1501
 6756UDC     C774312  18.219  18.008  14.841  0.9693  0.6793  0.5603
 6756UDC     C874313  18.347  18.069  14.888 -0.3007  0.6205  0.3671
 6756UDC     C974314  18.400  18.127  14.762 -0.0129  0.6083 -0.8091
 6756UDC    C1074315  18.527  18.200  14.809 -0.3462  1.2092 -0.8023
 6756UDC    C1174316  18.588  18.279  14.696 -0.3520 -0.3175 -0.0909
 6757UDC     C174317   0.244  16.837   2.322 -0.2355 -0.3224  1.0899
 6757UDC     C274318   0.270  16.971   2.261 -0.8316  1.3277  0.3828
 6757UDC     C374319   0.391  17.054   2.312  0.5041 -1.0993 -0.2943
 6757UDC     C474320   0.420  17.175   2.222 -0.0059 -0.4322  1.4862
 6757UDC     C574321   0.399  17.315   2.274  0.2145  1.0407  0.2442
 6757UDC     C674322   0.522  17.390   2.305  0.0940 -0.3169  0.6884
 6757UDC     C774323   0.495  17.533   2.360 -0.0105 -0.3500  0.1660
 6757UDC     C874324   0.435  17.531   2.505 -0.1158  0.0781 -0.6010
 6757UDC     C974325   0.470  17.665   2.578  0.2359  1.4125 -0.2582
 6757UDC    C1074326   0.370  17.706   2.685 -0.6467 -0.5070 -0.6491
 6757UDC    C1174327   0.395  17.802   2.807 -0.1154 -1.4851  1.0332
 6758UDC     C174328  10.514   5.497   9.830  0.1087 -0.1284 -0.5797
 6758UDC     C274329  10.388   5.590   9.820  0.5011  0.3316 -0.2235
 6758UDC     C374330  10.366   5.650   9.680  0.7704  0.5928 -0.1052
 6758UDC     C474331  10.216   5.700   9.664 -0.1538  0.4728 -0.7785
 6758UDC     C574332  10.183   5.746   9.524  0.3110 -1.2387 -0.4666
 6758UDC     C674333  10.053   5.842   9.509 -1.3403  1.0732  0.5083
 6758UDC     C774334   9.925   5.760   9.487  0.7051 -0.1852  0.3426
 6758UDC     C874335   9.878   5.757   9.344 -0.8028  0.2656  1.3296
 6758UDC     C974336   9.744   5.682   9.306  0.1375  0.2719  0.0811
 6758UDC    C1074337   9.735   5.534   9.357 -0.5095  0.2593 -0.0017
 6758UDC    C1174338   9.658   5.419   9.284 -1.1548  0.2654 -0.7403
 6759UDC     C174339   9.181  10.173  15.364 -0.7818  0.0783 -0.7481
 6759UDC     C274340   9.171  10.042  15.448 -0.1690 -1.0787 -0.1553
 6759UDC     C374341   9.028  10.003  15.500 -0.1913 -0.0249 -1.0011
 6759UDC     C474342   9.028   9.961  15.645 -0.9303  0.2073 -0.1744
 6759UDC     C574343   9.090   9.825  15.686 -0.0382 -0.3770 -0.7694
 6759UDC     C674344   9.211   9.820  15.781  1.1381 -0.1849 -0.3347
 6759UDC     C774345   9.311   9.695  15.751  0.6998  0.2368 -0.2208
 6759UDC     C874346   9.441   9.689  15.836 -0.9756 -0.7601  0.2908
 6759UDC     C974347   9.443   9.733  15.987  0.4411 -0.2597 -0.4333
 6759UDC    C1074348   9.562   9.675  16.068  0.2590  0.2534  0.5795
 6759UDC    C1174349   9.543   9.682  16.216 -0.9701  0.4433 -0.1351
 6760UDC     C174350  10.922   4.490  17.369  0.5574 -0.1232  0.5317
 6760UDC     C274351  11.016   4.579  17.455  0.4932  0.7072  0.6124
 6760UDC     C374352  11.089   4.485  17.553  0.6870 -0.8187 -0.5852
 6760UDC     C474353  11.186   4.549  17.661 -1.1384 -0.6514  0.4355
 6760UDC     C574354  11.235   4.453  17.768  0.1177  1.2324 -0.6843
 6760UDC     C674355  11.340   4.506  17.870  0.0251  1.0920 -0.3717
 6760UDC     C774356  11.393   4.404  17.975  0.4724  0.5950 -0.2783
 6760UDC     C874357  11.285   4.310  18.031 -1.0015 -0.0982 -0.0785
 6760UDC     C974358  11.321   4.215  18.144 -0.3282  0.0444  1.2127
 6760UDC    C1074359  11.328   4.265  18.291 -0.6768  0.0340 -0.1037
 6760UDC    C1174360  11.407   4.186  18.398  0.1049  1.1316  0.0456
 6761UDC     C174361  17.967  10.202  19.227 -0.4503  0.1809  0.4616
 6761UDC     C274362  17.948  10.287  19.099  0.4295 -0.4805  0.3894
 6761UDC     C374363  17.969  10.209  18.975 -0.1854  1.0546  0.1282
 6761UDC     C474364  18.101  10.125  18.977  0.8457  0.6096 -1.3156
 6761UDC     C574365  18.087  10.001  18.889  0.0718 -0.4822  1.5932
 6761UDC     C674366  18.215   9.919  18.861 -0.7419  1.2799  1.2137
 6761UDC     C774367  18.293   9.874  18.985  0.8531  0.9726 -0.0422
 6761UDC     C874368  18.389   9.764  18.947  0.5179 -0.2511 -1.0056
 6761UDC     C974369  18.530   9.758  19.008 -0.0312 -0.9751 -0.3635
 6761UDC    C1074370  18.610   9.888  18.983 -0.9994 -0.5447 -0.1692
 6761UDC    C1174371  18.770   9.881  18.978  0.8931  0.3582  0.2707
 6762UDC     C174372   2.268  15.736  18.776  0.3477  0.3925  0.2899
 6762UDC     C274373   2.139  15.692  18.713  0.9196 -0.7193  0.7421
 6762UDC     C374374   2.055  15.812  18.669 -1.2673 -0.1546 -0.3194
 6762UDC     C474375   1.924  15.768  18.622 -0.1006  0.4272 -0.3284
 6762UDC     C574376   1.804  15.767  18.723  0.1330 -0.3612 -0.6168
 6762UDC     C674377   1.668  15.733  18.655  1.0409  0.1570 -0.1423
 6762UDC     C774378   1.554  15.813  18.726 -0.6407  0.2936 -0.1450
 6762UDC     C874379   1.543  15.777  18.874 -0.7989 -0.0686 -0.1362
 6762UDC     C974380   1.450  15.888  18.951 -0.6778  0.5728 -0.3772
 6762UDC    C1074381   1.314  15.896  18.882  0.4766  0.5064  0.1627
 6762UDC    C1174382   1.222  16.007  18.929 -0.2048 -1.1865  0.5729
 6763UDC     C174383   9.011  18.358   3.704  0.9083  0.3443  0.2276
 6763UDC     C274384   9.113  18.397   3.809  0.0852  0.6091  0.4266
 6763UDC     C374385   9.186  18.287   3.888  0.1618  1.1784  0.8394
 6763UDC     C474386   9.287  18.352   3.989 -0.6522 -0.0302  0.2139
 6763UDC     C574387   9.371  18.265   4.087  0.1883  0.0065 -1.1604
 6763UDC     C674388   9.525  18.295   4.100  0.1256 -0.7029  1.2743
 6763UDC     C774389   9.607  18.247   4.222 -1.0254 -0.0707 -0.2666
 6763UDC     C874390   9.757  18.292   4.216  0.1601 -0.9989  0.1534
 6763UDC     C974391   9.817  18.266   4.354 -0.1150 -0.0028  0.0854
 6763UDC    C1074392   9.932  18.363   4.412 -0.5375 -0.4874 -0.4754
 6763UDC    C1174393   9.905  18.471   4.522  0.0905  0.2295  0.2963
 6764UDC     C174394   7.377  11.848  10.673 -0.4309 -1.1590  0.4164
 6764UDC     C274395   7.360  11.883  10.817  1.1085  0.3324 -0.1905
 6764UDC     C374396   7.291  11.766  10.891  0.3118 -0.6101  0.2137
 6764UDC     C474397   7.161  11.792  10.977 -0.9060 -0.2719 -0.2817
 6764UDC     C574398   7.063  11.675  10.997  0.0401 -0.2948  0.2518
 6764UDC     C674399   6.966  11.706  11.120  0.7310  0.7417 -0.4375
 6764UDC     C774400   6.870  11.822  11.094  0.6583 -0.1943 -0.9539
 6764UDC     C874401   6.773  11.842  11.208  0.7958 -0.2317  0.1939
 6764UDC     C974402   6.840  11.950  11.293  0.4485 -0.8194  0.4066
 6764UDC    C1074403   6.878  12.074  11.203 -0.6180  0.8688  1.1845
 6764UDC    C1174404   7.019  12.136  11.253 -0.1851  0.9692  0.0783
 6765UDC     C174405   8.393  13.202  14.203  0.0261  0.5005  0.0902
 6765UDC     C274406   8.514  13.299  14.198 -0.8358  0.8719  0.5777
 6765UDC     C374407   8.535  13.368  14.333  0.1808 -0.1311 -0.3755
 6765UDC     C474408   8.552  13.272  14.451  0.1043 -0.7926  0.2001
 6765UDC     C574409   8.555  13.336  14.589 -0.4876  0.3728  0.1003
 6765UDC     C674410   8.663  13.293  14.683  0.9503  0.5793 -0.6467
 6765UDC     C774411   8.804  13.349  14.717  0.2821  0.8598  0.3442
 6765UDC     C874412   8.919  13.341  14.618  0.0071 -1.0515 -1.2894
 6765UDC     C974413   9.045  13.401  14.668  0.4712  0.5074 -1.0042
 6765UDC    C1074414   9.012  13.535  14.727  0.8453 -0.1398  0.3173
 6765UDC    C1174415   9.103  13.655  14.676  0.6330  0.2831 -0.0631
 6766UDC     C174416  11.796   5.414   1.116  1.5471  0.2329  0.5141
 6766UDC     C274417  11.746   5.366   1.257  0.8125 -0.4863 -0.6126
 6766UDC     C374418  11.804   5.438   1.377 -0.5526  0.1829  0.8513
 6766UDC     C474419  11.703   5.488   1.488  0.0361 -0.6074 -0.2974
 6766UDC     C574420  11.760   5.583   1.591  0.2552 -0.3961 -0.6795
 6766UDC     C674421  11.875   5.538   1.674 -0.0966  0.6996 -0.6403
 6766UDC     C774422  11.854   5.565   1.825 -0.5494  0.6502 -0.2622
 6766UDC     C874423  11.953   5.522   1.936  0.3573 -0.5993  0.1006
 6766UDC     C974424  11.919   5.498   2.082 -0.7872 -0.7376  0.0264
 6766UDC    C1074425  12.032   5.528   2.177  1.2543  0.0234 -0.4544
 6766UDC    C1174426  11.983   5.526   2.323  0.4676 -0.6184  0.3414
 6767UDC     C174427   8.396  18.549  17.104  0.0514  1.2226 -0.0342
 6767UDC     C274428   8.466  18.550  17.244  1.5641  0.5129 -0.5943
 6767UDC     C374429   8.397  18.429  17.320 -0.6092 -1.1351 -0.4802
 6767UDC     C474430   8.429  18.447  17.469  0.6344  0.3369 -0.5256
 6767UDC     C574431   8.393  18.580  17.535  0.6055 -0.3972  0.9271
 6767UDC     C674432   8.459  18.606  17.669  0.0248  1.1020 -0.6444
 6767UDC     C774433   8.440  18.738  17.748  0.3517 -0.3127  0.7971
 6767UDC     C874434   8.449  18.858  17.654 -0.5851 -0.0495 -0.2184
 6767UDC     C974435   8.402  18.988  17.707  0.7361 -0.6547  0.2194
 6767UDC    C1074436   8.261  18.985  17.773  0.2762  0.1164  0.0925
 6767UDC    C1174437   8.139  19.037  17.693 -0.1115  0.6148 -0.5848
 6768UDC     C174438  15.420   8.796   0.401 -0.2932 -1.1482  0.0591
 6768UDC     C274439  15.524   8.691   0.424 -0.2636  0.1375 -0.4370
 6768UDC     C374440  15.587   8.661   0.287 -0.0557 -0.1806  1.3046
 6768UDC     C474441  15.636   8.516   0.269 -0.4572  0.4499 -0.9576
 6768UDC     C574442  15.539   8.436   0.182  0.2234  1.2458 -1.1017
 6768UDC     C674443  15.512   8.487   0.046  0.1491  1.0500  0.5443
 6768UDC     C774444  15.417   8.387  -0.023 -0.2445 -0.5935 -1.0670
 6768UDC     C874445  15.274   8.440  -0.008 -0.1284  0.8375 -0.0195
 6768UDC     C974446  15.174   8.336  -0.073 -0.7417 -0.1735  0.0152
 6768UDC    C1074447  15.205   8.298  -0.219 -0.4340  0.7076 -0.0053
 6768UDC    C1174448  15.112   8.185  -0.254  1.6001 -0.2271  0.9889
 6769UDC     C174449   8.525  19.186   1.120 -0.9604 -0.2590 -0.0735
 6769UDC     C274450   8.510  19.124   0.979  0.6840  1.4616  0.0429
 6769UDC     C374451   8.517  19.231   0.870 -0.2825 -0.8532  0.2614
 6769UDC     C474452   8.391  19.224   0.787  0.4566  0.1414  0.2885
 6769UDC     C574453   8.262  19.285   0.843  1.0456 -0.1111 -0.5003
 6769UDC     C674454   8.250  19.439   0.871 -0.9962 -0.8557  0.4800
 6769UDC     C774455   8.271  19.531   0.744  0.1912  0.1629  0.0752
 6769UDC     C874456   8.197  19.497   0.617  1.1869  0.5403 -0.3158
 6769UDC     C974457   8.191  19.602   0.507  0.3286  0.3886 -0.4556
 6769UDC    C1074458   8.128  19.546   0.379 -0.0079 -0.0864  0.2163
 6769UDC    C1174459   8.124  19.658   0.275 -0.0552  0.1299 -0.0267
 6770UDC     C174460  16.720  13.433  18.879 -1.0979 -0.3721  0.0548
 6770UDC     C274461  16.767  13.338  18.991  0.2379  0.1899 -0.0704
 6770UDC     C374462  16.887  13.252  18.979  1.0327  0.4931  0.1366
 6770UDC     C474463  16.938  13.192  19.109 -1.1710 -0.9142  0.0586
 6770UDC     C574464  16.900  13.045  19.133 -0.5190 -0.3769 -1.2608
 6770UDC     C674465  16.869  12.966  19.005  0.1079 -0.5145  0.1946
 6770UDC     C774466  16.909  12.816  19.008 -0.6925 -0.1906 -0.3405
 6770UDC     C874467  16.930  12.766  18.865 -0.7118 -0.0142  0.1632
 6770UDC     C974468  16.821  12.813  18.768 -0.6357  0.4628  0.2080
 6770UDC    C1074469  16.873  12.801  18.630 -0.6088  0.0426  0.3562
 6770UDC    C1174470  16.823  12.668  18.561 -0.4308 -0.0420 -1.1608
 6771UDC     C174471   2.229  19.204   0.209 -0.8141 -0.5336  0.1141
 6771UDC     C274472   2.357  19.196   0.126  1.1625  1.3303 -0.7303
 6771UDC     C374473   2.410  19.330   0.092  0.0939 -0.9248 -0.3924
 6771UDC     C474474   2.310  19.413   0.001 -0.5950 -0.8132  0.7639
 6771UDC     C574475   2.352  19.561   0.022  0.3699  0.2903 -0.3598
 6771UDC     C674476   2.339  19.664  -0.094  0.9386  0.4637 -0.6766
 6771UDC     C774477   2.450  19.629  -0.195  0.3325 -0.0168 -0.6342
 6771UDC     C874478   2.433  19.681  -0.338  1.1378 -0.6961 -0.5747
 6771UDC     C974479   2.548  19.743  -0.415 -0.3592 -0.0114 -0.0186
 6771UDC    C1074480   2.529  19.895  -0.452 -1.0059  0.6420  0.9179
 6771UDC    C1174481   2.516  19.992  -0.334 -0.4082 -0.3391  1.0692
 6772UDC     C174482   5.141  10.693  17.722 -0.0411  0.2159 -0.3102
 6772UDC     C274483   5.109  10.556  17.771  0.4577 -0.3145  1.2966
 6772UDC     C374484   4.961  10.557  17.752  0.7547 -0.1990  0.1194
 6772UDC     C474485   4.897  10.415  17.738  1.0256 -1.1167 -0.1341
 6772UDC     C574486   4.954  10.328  17.843 -1.3490 -0.5985 -0.6546
 6772UDC     C674487   4.940  10.174  17.818  0.1023 -0.2666 -0.5193
 6772UDC     C774488   4.792  10.145  17.820 -0.4389  0.2680 -0.1724
 6772UDC     C874489   4.772   9.991  17.824  0.6616 -0.5194  0.0577
 6772UDC     C974490   4.620   9.941  17.821  0.0421 -0.1009 -0.4881
 6772UDC    C1074491   4.581   9.894  17.963 -0.7219  0.9689 -0.3072
 6772UDC    C1174492   4.488   9.768  17.974  0.0467 -0.0984 -0.5911
 6773UDC     C174493   2.432  16.440  17.143  0.3397  0.2798  0.5472
 6773UDC     C274494   2.536  16.508  17.231  0.5741 -0.6298 -0.4202
 6773UDC     C374495   2.675  16.459  17.174  0.6345 -0.4839 -0.0908
 6773UDC     C474496   2.687  16.508  17.026  0.1247 -0.4290  0.0678
 6773UDC     C574497   2.820  16.475  16.955  0.4951 -0.0558  0.1941
 6773UDC     C674498   2.826  16.574  16.838  0.1273  0.0858 -0.4186
 6773UDC     C774499   2.947  16.562  16.737  1.0786  0.7901 -0.2811
 6773UDC     C874500   2.923  16.610  16.598 -1.3111 -0.8231  0.3687
 6773UDC     C974501   2.903  16.762  16.581  0.7008  1.0817  0.4242
 6773UDC    C1074502   2.831  16.797  16.450  0.6072 -0.1412 -0.4225
 6773UDC    C1174503   2.714  16.896  16.456 -0.8046  0.3704 -0.1033
 6774UDC     C174504   7.854  16.457   6.016 -0.0957  0.0748 -0.3503
 6774UDC     C274505   7.849  16.449   5.865 -1.1867  0.1496 -1.5044
 6774UDC     C374506   7.879  16.580   5.800  0.4829 -0.8569  0.3370
 6774UDC     C474507   7.885  16.592   5.645  0.7639  0.3088 -0.1028
 6774UDC     C574508   7.922  16.722   5.577  0.4288 -0.4487 -0.1669
 6774UDC     C674509   8.056  16.771   5.635  0.0642 -0.0093 -0.0031
 6774UDC     C774510   8.177  16.703   5.574 -1.5029  0.4902  0.5024
 6774UDC     C874511   8.315  16.763   5.631 -0.9547 -0.8768  0.7520
 6774UDC     C974512   8.442  16.676   5.597  1.1135 -0.7714 -1.1070
 6774UDC    C1074513   8.482  16.660   5.450 -0.0851  0.5144 -0.7009
 6774UDC    C1174514   8.599  16.557   5.457 -0.1868 -0.6031 -0.0708
 6775UDC     C174515   8.688   8.293  13.937  1.0380 -0.6622 -0.1657
 6775UDC     C274516   8.619   8.167  14.001  0.0346 -1.0625  0.0288
 6775UDC     C374517   8.562   8.072  13.889 -0.2045 -0.4916 -0.3812
 6775UDC     C474518   8.658   8.006  13.791 -0.4751  1.0880 -0.9475
 6775UDC     C574519   8.606   8.013  13.652  0.3712 -0.3373  0.2824
 6775UDC     C674520   8.721   7.986  13.559 -0.7487  0.9134  0.8770
 6775UDC     C774521   8.716   7.968  13.400 -0.1425 -0.3395  0.1159
 6775UDC     C874522   8.814   7.863  13.353  0.6904 -0.3787  0.0088
 6775UDC     C974523   8.810   7.835  13.209  0.7727  0.8567 -0.5255
 6775UDC    C1074524   8.899   7.713  13.177  0.1287  0.6221  0.6229
 6775UDC    C1174525   8.953   7.697  13.038  0.8791 -0.3238  0.3478
 6776UDC     C174526  11.057  11.331   6.717 -0.0708 -0.7701  0.3428
 6776UDC     C274527  11.190  11.262   6.760 -0.5725 -0.4270 -0.5155
 6776UDC     C374528  11.332  11.316   6.734 -0.4881 -0.1954  0.0451
 6776UDC     C474529  11.466  11.252   6.766  0.0686 -0.8726  0.6489
 6776UDC     C574530  11.483  11.115   6.708 -0.0881  0.0274 -1.5482
 6776UDC     C674531  11.614  11.042   6.752  0.3133  0.6699  0.0979
 6776UDC     C774532  11.597  10.959   6.881  0.2278 -0.7433 -0.5282
 6776UDC     C874533  11.736  10.940   6.953  0.5232 -0.7243  0.3789
 6776UDC     C974534  11.763  10.801   6.986  0.4867  0.4983 -0.2899
 6776UDC    C1074535  11.779  10.727   6.856 -0.8528  0.5860 -0.7025
 6776UDC    C1174536  11.912  10.752   6.783 -0.5044  0.6489 -0.9065
 6777UDC     C174537  17.422   5.539   8.651 -0.0377 -0.2357  0.1120
 6777UDC     C274538  17.480   5.515   8.788 -0.7743 -0.8991  0.8762
 6777UDC     C374539  17.427   5.632   8.873 -0.3840 -0.1104  0.3561
 6777UDC     C474540  17.449   5.609   9.021 -0.3221  0.7549 -0.1003
 6777UDC     C574541  17.392   5.706   9.116 -0.5277 -0.1746 -0.7270
 6777UDC     C674542  17.238   5.701   9.147  0.3568  0.4777 -0.1331
 6777UDC     C774543  17.178   5.821   9.213 -0.2286 -1.0562 -0.6212
 6777UDC     C874544  17.023   5.815   9.204 -0.1264  0.1504  0.7578
 6777UDC     C974545  16.934   5.923   9.268 -0.6216  0.0654 -0.1545
 6777UDC    C1074546  16.873   5.866   9.393  0.1344  0.0782 -0.9756
 6777UDC    C1174547  16.834   5.716   9.371  0.5805  0.3013  0.1579
 6778UDC     C174548  12.502   3.478   6.041 -0.4966  0.4711 -0.3905
 6778UDC     C274549  12.590   3.571   5.957  0.3665 -0.5387 -0.2034
 6778UDC     C374550  12.669   3.518   5.834  0.5578 -0.2428  0.3654
 6778UDC     C474551  12.737   3.626   5.755 -0.0785  0.4798 -0.5522
 6778UDC     C574552  12.631   3.717   5.694 -0.5450  0.8325 -0.3485
 6778UDC     C674553  12.670   3.833   5.600 -0.4290 -0.1997 -0.6230
 6778UDC     C774554  12.678   3.799   5.446  0.6362  0.7446 -0.2003
 6778UDC     C874555  12.657   3.901   5.340  0.1915  0.8006 -0.6946
 6778UDC     C974556  12.676   3.840   5.200  0.6648  0.2203  0.0468
 6778UDC    C1074557  12.561   3.760   5.146 -0.0542 -1.3704 -0.0695
 6778UDC    C1174558  12.591   3.661   5.036 -1.2639  0.1963  1.7869
 6779UDC     C174559  17.720   0.183  19.210 -0.4157 -0.1307  0.3702
 6779UDC     C274560  17.634   0.269  19.124 -0.7572 -0.2161  0.0061
 6779UDC     C374561  17.683   0.255  18.977  0.4663  0.6797  0.1179
 6779UDC     C474562  17.700   0.386  18.901  0.5264  0.0104 -0.6404
 6779UDC     C574563  17.769   0.386  18.768  0.3444  0.6946 -0.6573
 6779UDC     C674564  17.839   0.521  18.742  0.6228  0.7627  0.7888
 6779UDC     C774565  17.929   0.552  18.621  0.1393 -0.7101  0.1456
 6779UDC     C874566  17.928   0.696  18.571  0.7734 -0.9493 -0.1122
 6779UDC     C974567  17.996   0.785  18.681 -0.4209  0.0143  0.2272
 6779UDC    C1074568  18.134   0.721  18.737  0.1385 -0.2549 -0.9014
 6779UDC    C1174569  18.229   0.812  18.809 -0.0000 -0.4599  0.5726
 6780UDC     C174570  18.440  13.600   9.420 -1.0438  0.9206  0.8720
 6780UDC     C274571  18.525  13.713   9.483 -0.4930 -1.1117 -0.5899
 6780UDC     C374572  18.441  13.830   9.534  1.0146  0.1018 -0.5211
 6780UDC     C474573  18.298  13.796   9.579  1.2011 -0.5845  1.2412
 6780UDC     C574574  18.194  13.895   9.517  0.3844  0.0479 -0.0566
 6780UDC     C674575  18.063  13.909   9.601  1.3815  0.1423  0.0232
 6780UDC     C774576  18.063  14.051   9.664  1.7392 -1.4700  0.9539
 6780UDC     C874577  18.045  14.180   9.573  0.8748 -0.1772  0.6626
 6780UDC     C974578  17.912  14.189   9.491 -0.2443  0.7573  0.0285
 6780UDC    C1074579  17.885  14.301   9.391  0.7141  0.6620 -0.5418
 6780UDC    C1174580  17.782  14.257   9.285  1.2706 -0.0199  0.1123
 6781UDC     C174581   3.054  14.637  15.812  0.9348 -0.2622 -0.7362
 6781UDC     C274582   3.126  14.578  15.937 -0.1980  0.5825  0.1218
 6781UDC     C374583   3.236  14.678  15.977 -0.3858  0.9402 -0.1479
 6781UDC     C474584   3.185  14.814  16.028 -0.7670 -0.5055  0.2046
 6781UDC     C574585   3.297  14.918  16.059  1.4150 -0.1893  0.9478
 6781UDC     C674586   3.247  15.048  16.114  0.7622 -0.3535 -0.0838
 6781UDC     C774587   3.326  15.113  16.228 -0.9114  0.6881 -1.3962
 6781UDC     C874588   3.252  15.212  16.325  0.3061  0.1412  0.8540
 6781UDC     C974589   3.332  15.274  16.449 -0.2347 -0.2657 -0.0681
 6781UDC    C1074590   3.274  15.314  16.588  0.0607  0.5528 -0.0684
 6781UDC    C1174591   3.377  15.383  16.685  0.5842  0.0947  0.3440
 6782UDC     C174592  12.125  17.890  15.250 -0.0868 -0.3280  0.7232
 6782UDC     C274593  12.014  17.969  15.170 -0.0358  0.6393 -0.2682
 6782UDC     C374594  12.070  18.001  15.029  0.6654  0.3638  0.4841
 6782UDC     C474595  12.039  18.133  14.954 -0.3941  0.2181 -0.1126
 6782UDC     C574596  12.026  18.095  14.801  0.2603 -0.6982 -0.7014
 6782UDC     C674597  11.959  18.220  14.736 -0.6338 -0.8035 -0.1306
 6782UDC     C774598  11.874  18.213  14.608  0.2155  0.5771  0.4527
 6782UDC     C874599  11.947  18.181  14.474  0.4107  0.9663  0.3649
 6782UDC     C974600  11.856  18.134  14.360  0.4072  0.6938  0.6741
 6782UDC    C1074601  11.731  18.058  14.420 -0.1062 -0.2386  0.2942
 6782UDC    C1174602  11.614  18.045  14.328 -0.2223 -0.7619  1.3537
 6783UDC     C174603   4.473   6.145   9.883 -0.5491  0.1787  0.0059
 6783UDC     C274604   4.528   6.102  10.020 -1.0625  1.0731 -0.4379
 6783UDC     C374605   4.507   5.947  10.033 -0.1248  0.8184 -0.1445
 6783UDC     C474606   4.569   5.869  10.143  0.1396  0.7446 -1.1475
 6783UDC     C574607   4.466   5.752  10.165 -1.0774  0.4094 -0.9680
 6783UDC     C674608   4.515   5.673  10.288  0.5559  0.7996 -0.2159
 6783UDC     C774609   4.468   5.523  10.297 -0.9695 -1.0508 -0.1659
 6783UDC     C874610   4.520   5.412  10.399  0.3943  0.6149  0.6660
 6783UDC     C974611   4.469   5.421  10.545  0.1490  0.2746 -0.5615
 6783UDC    C1074612   4.549   5.315  10.630 -0.0105  0.2966 -0.1120
 6783UDC    C1174613   4.487   5.276  10.769  0.1594 -0.8458  0.0705
 6784UDC     C174614   0.184  15.630  19.696 -0.7091 -0.7367 -1.4240
 6784UDC     C274615   0.208  15.774  19.745  0.2728 -0.8878  0.3883
 6784UDC     C374616   0.155  15.886  19.644  0.0382  0.6957 -1.0472
 6784UDC     C474617   0.063  16.002  19.697  0.1739 -0.1439 -0.5599
 6784UDC     C574618   0.117  16.142  19.709  0.3032  1.1548  0.3380
 6784UDC     C674619   0.039  16.227  19.798  0.6217 -0.6843  0.1754
 6784UDC     C774620   0.100  16.366  19.828  1.1206 -0.2951  0.1334
 6784UDC     C874621   0.094  16.470  19.709 -0.3723  0.1484 -0.1563
 6784UDC     C974622   0.150  16.612  19.747  1.1050 -0.1541  0.6255
 6784UDC    C1074623   0.303  16.615  19.748  0.6972  0.6185  0.4837
 6784UDC    C1174624   0.374  16.548  19.630 -0.6026  0.9972 -0.6618
 6785UDC     C174625  16.521  12.736  15.962 -0.5211  0.4163  0.7956
 6785UDC     C274626  16.367  12.731  15.937 -0.1883 -0.8161  0.0407
 6785UDC     C374627  16.326  12.595  15.884 -0.3719  0.4720  0.5733
 6785UDC     C474628  16.371  12.560  15.742  0.2457 -0.8514  0.5807
 6785UDC     C574629  16.272  12.597  15.631 -0.1877 -1.3787 -1.0870
 6785UDC     C674630  16.341  12.651  15.505  0.2985  0.4129 -1.0691
 6785UDC     C774631  16.235  12.670  15.396  0.0837  0.4437 -0.1673
 6785UDC     C874632  16.325  12.662  15.260  0.1141  0.9103 -0.6193
 6785UDC     C974633  16.256  12.631  15.126  0.2864 -0.2607 -0.9010
 6785UDC    C1074634  16.350  12.566  15.024  0.5275  0.2221  0.1366
 6785UDC    C1174635  16.272  12.564  14.892 -0.6660 -0.7041 -1.0577
 6786UDC     C174636  12.211   3.544   7.641 -0.1873 -0.2930  0.5136
 6786UDC     C274637  12.067   3.571   7.677  0.0491  0.6785  0.6067
 6786UDC     C374638  12.059   3.663   7.805 -0.0353 -0.3908  0.3319
 6786UDC     C474639  12.092   3.807   7.758  0.5747  0.6351 -0.4843
 6786UDC     C574640  12.007   3.869   7.648  0.0826 -0.3248 -0.4071
 6786UDC     C674641  12.075   3.986   7.573  0.2692 -0.9842  0.6381
 6786UDC     C774642  11.976   4.099   7.554  0.2952 -1.2671  0.1902
 6786UDC     C874643  11.984   4.167   7.684  1.3537  0.6591 -0.0021
 6786UDC     C974644  12.120   4.229   7.701 -0.1269 -0.8228  0.7180
 6786UDC    C1074645  12.122   4.286   7.842 -0.6819  0.5435  0.0648
 6786UDC    C1174646  12.253   4.241   7.910 -0.3065 -0.1578 -0.6429
 6787UDC     C174647   3.833  14.312   5.164 -0.2923 -0.3049  0.1055
 6787UDC     C274648   3.685  14.334   5.204 -1.6062 -0.5592 -0.3597
 6787UDC     C374649   3.608  14.224   5.277 -0.1835  0.6807 -0.5796
 6787UDC     C474650   3.465  14.292   5.309  0.0242 -0.0698 -0.8677
 6787UDC     C574651   3.369  14.208   5.396  0.3601 -0.3299  0.4416
 6787UDC     C674652   3.358  14.056   5.353  0.6767  0.7555 -0.1827
 6787UDC     C774653   3.246  14.007   5.269  0.4928 -0.8142 -0.2817
 6787UDC     C874654   3.267  13.860   5.232  1.8800  0.1860 -0.9665
 6787UDC     C974655   3.166  13.822   5.129  0.2905 -0.9315  0.0345
 6787UDC    C1074656   3.182  13.687   5.073  0.5554  0.4587  1.3637
 6787UDC    C1174657   3.160  13.665   4.920 -0.5618 -1.0839 -0.2121
 6788UDC     C174658   3.944  13.163  12.369  0.8758 -1.5031  0.5229
 6788UDC     C274659   3.951  13.301  12.449  0.7381  0.0312 -0.0453
 6788UDC     C374660   3.976  13.284  12.604 -0.0643 -0.3138 -0.9357
 6788UDC     C474661   3.979  13.425  12.674  0.3398  0.2403 -1.1166
 6788UDC     C574662   3.914  13.541  12.598 -0.0959 -0.0636  0.0383
 6788UDC     C674663   3.956  13.677  12.664 -0.0800  0.6431  0.8714
 6788UDC     C774664   3.909  13.812  12.610  0.2569  0.0580  0.4711
 6788UDC     C874665   3.992  13.878  12.496 -0.9996  0.8710 -0.8562
 6788UDC     C974666   3.947  14.026  12.462 -0.3655  0.6335 -0.2848
 6788UDC    C1074667   3.798  14.034  12.428 -0.2115 -0.8134  0.8072
 6788UDC    C1174668   3.747  14.173  12.397 -0.2629  0.0317  0.2207
 6789UDC     C174669  13.475  12.480  16.795  0.0649 -0.2153  1.3127
 6789UDC     C274670  13.345  12.556  16.826 -1.0371  0.3001  0.8164
 6789UDC     C374671  13.365  12.691  16.903  0.5623  0.0843  0.0181
 6789UDC     C474672  13.463  12.784  16.822  1.0155  0.3276 -1.0819
 6789UDC     C574673  13.467  12.926  16.879 -0.0230  0.8378 -0.7578
 6789UDC     C674674  13.560  13.034  16.822 -1.3081  0.5424 -0.9650
 6789UDC     C774675  13.532  13.169  16.891  0.3131 -0.2108 -0.4141
 6789UDC     C874676  13.379  13.199  16.910 -0.0241  0.2529 -0.3103
 6789UDC     C974677  13.359  13.336  16.981  0.3291 -0.4984  0.2163
 6789UDC    C1074678  13.220  13.338  17.060 -1.0116  0.1973  0.2498
 6789UDC    C1174679  13.107  13.361  16.964  0.1844 -0.7702 -0.1752
 6790UDC     C174680  17.619   2.681   5.720  0.3559  0.0059  0.8481
 6790UDC     C274681  17.560   2.656   5.578  0.2634 -0.4138 -1.1451
 6790UDC     C374682  17.579   2.770   5.471 -0.1167 -0.7754  1.8659
 6790UDC     C474683  17.539   2.731   5.328 -0.0842  0.1027  0.0328
 6790UDC     C574684  17.598   2.841   5.239 -0.0223  0.5234  0.4198
 6790UDC     C674685  17.750   2.847   5.254  0.2611 -0.3979  0.1933
 6790UDC     C774686  17.846   2.794   5.143  0.0949  0.4008  0.4106
 6790UDC     C874687  18.000   2.826   5.147  0.6643 -0.2473 -1.3205
 6790UDC     C974688  18.067   2.777   5.018 -0.4621 -1.3284 -0.5551
 6790UDC    C1074689  18.023   2.879   4.912  0.4542 -0.7210  0.5750
 6790UDC    C1174690  18.064   2.841   4.770 -0.3723 -0.8092 -1.2401
 6791UDC     C174691   6.316  15.951  19.037 -0.4624 -0.5814 -0.0068
 6791UDC     C274692   6.274  16.102  19.025 -0.5276  1.1502 -0.0723
 6791UDC     C374693   6.374  16.211  18.985 -0.2686 -0.2710 -0.0429
 6791UDC     C474694   6.495  16.193  19.080 -0.2804 -0.4690 -1.0455
 6791UDC     C574695   6.622  16.273  19.040  0.5292  0.4535  0.6296
 6791UDC     C674696   6.726  16.230  19.141  0.3359  1.2772  0.0594
 6791UDC     C774697   6.780  16.090  19.112  0.4160  0.6011  0.3405
 6791UDC     C874698   6.828  16.001  19.226 -0.2954 -0.1054 -0.6336
 6791UDC     C974699   6.949  16.040  19.308 -0.5044 -0.7509 -0.0383
 6791UDC    C1074700   6.962  16.165  19.390 -0.3531  0.0479 -0.4319
 6791UDC    C1174701   7.106  16.195  19.438  0.7860  0.3020  0.7667
 6792UDC     C174702   7.421   9.884   5.377 -0.1527 -0.3265 -0.5294
 6792UDC     C274703   7.327   9.776   5.337 -0.5360  0.6299  1.9044
 6792UDC     C374704   7.365   9.636   5.381 -0.9573  1.4168  0.3019
 6792UDC     C474705   7.237   9.575   5.427  0.7176 -0.3451 -0.6095
 6792UDC     C574706   7.123   9.646   5.357  0.1170 -0.0228  0.4341
 6792UDC     C674707   6.986   9.613   5.424  0.0850 -0.4911 -0.0756
 6792UDC     C774708   6.960   9.655   5.572 -0.1678  0.6864  0.2668
 6792UDC     C874709   6.858   9.571   5.644 -1.1412 -0.2926 -1.3389
 6792UDC     C974710   6.833   9.608   5.791  0.3175  1.1289  0.5495
 6792UDC    C1074711   6.943   9.543   5.879 -0.1064 -0.0578 -0.0217
 6792UDC    C1174712   6.953   9.395   5.858  0.1637 -0.9435 -0.3069
 6793UDC     C174713   3.847  10.711  14.248  0.9794 -0.2402 -0.0419
 6793UDC     C274714   3.892  10.648  14.117 -0.1774 -0.3954 -1.2075
 6793UDC     C374715   3.823  10.702  13.998  0.4900 -0.6391  0.5065
 6793UDC     C474716   3.891  10.670  13.863 -0.7339  0.4413  0.1874
 6793UDC     C574717   4.043  10.678  13.903  0.3968  0.8918 -0.8065
 6793UDC     C674718   4.146  10.577  13.848  0.6909  0.2271 -0.7801
 6793UDC     C774719   4.173  10.608  13.700 -1.2070 -0.3836  0.0543
 6793UDC     C874720   4.252  10.497  13.632  0.7840 -0.1742 -0.9049
 6793UDC     C974721   4.249  10.510  13.479  0.1378 -0.5499  0.0990
 6793UDC    C1074722   4.282  10.648  13.416 -0.6192  0.7205  0.9517
 6793UDC    C1174723   4.260  10.662  13.264  0.3199 -0.1541 -0.2585
 6794UDC     C174724  19.905   6.699  10.433  0.2494  0.4235  0.2885
 6794UDC     C274725  19.771   6.700  10.504  1.0094  0.3325 -0.5666
 6794UDC     C374726  19.724   6.562  10.549  0.8864 -0.3331  0.2877
 6794UDC     C474727  19.640   6.573  10.676 -0.4301 -1.5436  0.1407
 6794UDC     C574728  19.601   6.431  10.718 -0.1997  0.3442  0.6161
 6794UDC     C674729  19.513   6.353  10.622  0.6158 -1.4887 -0.4162
 6794UDC     C774730  19.526   6.210  10.673 -0.1642  0.2369 -0.7103
 6794UDC     C874731  19.414   6.167  10.773 -0.5686 -0.1527  0.0130
 6794UDC     C974732  19.407   6.020  10.821  0.3875  1.1510  1.0076
 6794UDC    C1074733  19.304   6.008  10.941 -1.7992  0.2340 -0.6412
 6794UDC    C1174734  19.318   6.142  11.019  0.0848 -0.5258  0.2028
 6795UDC     C174735  15.938   6.813   8.289 -1.3874 -0.9308 -0.2924
 6795UDC     C274736  16.053   6.814   8.398 -0.7603 -0.0139 -0.0577
 6795UDC     C374737  16.000   6.855   8.535  0.6479 -0.5725 -0.3192
 6795UDC     C474738  16.104   6.811   8.637 -0.6415 -0.0300  0.7891
 6795UDC     C574739  16.252   6.862   8.639 -0.1651  1.3586  1.3719
 6795UDC     C674740  16.341   6.818   8.762 -0.6640 -1.2624  0.1200
 6795UDC     C774741  16.455   6.914   8.774 -0.4384  0.3693 -0.0121
 6795UDC     C874742  16.555   6.906   8.659  0.8889 -0.0436 -0.2914
 6795UDC     C974743  16.607   6.764   8.633 -0.0032  0.5170  0.3905
 6795UDC    C1074744  16.670   6.755   8.494  0.2934 -0.2549  0.4364
 6795UDC    C1174745  16.738   6.627   8.450 -0.1422 -0.2494  0.4958
 6796UDC     C174746  11.978   2.445   3.933  0.0233  0.9528  0.6635
 6796UDC     C274747  11.955   2.593   3.959  0.4078 -0.1825  0.9173
 6796UDC     C374748  12.031   2.657   4.070  0.1114  0.4230 -0.1247
 6796UDC     C474749  12.169   2.697   4.029  0.7268 -0.4286  0.3060
 6796UDC     C574750  12.176   2.810   3.927  0.7824 -0.4294 -0.1028
 6796UDC     C674751  12.251   2.785   3.791  0.3335  0.9312 -1.2495
 6796UDC     C774752  12.247   2.923   3.720 -0.1327 -0.2083 -0.3423
 6796UDC     C874753  12.100   2.952   3.701  1.5176  0.0198 -0.6274
 6796UDC     C974754  12.086   3.073   3.607 -0.1588 -0.6924  1.0426
 6796UDC    C1074755  12.095   3.201   3.693  0.9725  1.1441  0.2353
 6796UDC    C1174756  12.006   3.326   3.674 -0.2992 -0.1957  0.3408
 6797UDC     C174757  10.435  14.851  11.448 -0.4275  0.7283  0.5935
 6797UDC     C274758  10.475  14.936  11.328 -1.2835  0.4253  0.0652
 6797UDC     C374759  10.542  15.072  11.364 -0.5731  0.4847 -0.6869
 6797UDC     C474760  10.682  15.090  11.437  0.6566  0.5544 -0.4025
 6797UDC     C574761  10.801  15.067  11.353  0.4066  0.2083 -0.3034
 6797UDC     C674762  10.941  15.057  11.419  0.7783 -0.1250 -0.3116
 6797UDC     C774763  11.066  15.035  11.317  0.2366  0.4387 -0.6103
 6797UDC     C874764  11.201  14.995  11.383  0.4868  0.6330 -1.4524
 6797UDC     C974765  11.288  15.114  11.429 -0.8440  0.4949  1.1469
 6797UDC    C1074766  11.398  15.066  11.526 -0.1445  0.8622  0.1187
 6797UDC    C1174767  11.353  14.938  11.604 -0.5490 -0.7758  0.8308
 6798UDC     C174768   4.259  15.268   2.324  0.9798 -0.1200  0.2257
 6798UDC     C274769   4.372  15.332   2.403 -0.5591  0.5534  1.1238
 6798UDC     C374770   4.463  15.228   2.470 -0.0772 -0.1108 -0.1580
 6798UDC     C474771   4.589  15.277   2.553  0.9699  1.2800 -0.1334
 6798UDC     C574772   4.667  15.401   2.510  0.6236  0.7622 -0.7347
 6798UDC     C674773   4.723  15.506   2.608 -1.4762  0.5125 -0.5000
 6798UDC     C774774   4.858  15.571   2.572  0.9257 -0.2362 -0.8262
 6798UDC     C874775   4.866  15.723   2.582 -0.1627  0.2824 -0.1657
 6798UDC     C974776   4.923  15.780   2.721 -0.1444 -0.5889 -0.4068
 6798UDC    C1074777   4.972  15.931   2.731  0.1135  0.2980 -0.1259
 6798UDC    C1174778   4.866  16.035   2.699 -0.1877 -0.0711 -0.9516
 6799UDC     C174779   7.707  12.675  12.986 -1.7239 -0.1169  0.2956
 6799UDC     C274780   7.610  12.551  12.994 -0.7152  0.1804 -0.5054
 6799UDC     C374781   7.695  12.436  12.937 -0.0544  0.0092 -0.2800
 6799UDC     C474782   7.586  12.351  12.866  1.0271  0.2718  0.0797
 6799UDC     C574783   7.605  12.199  12.843 -0.3880  0.4143  0.2239
 6799UDC     C674784   7.617  12.117  12.975 -0.4250  0.1411  0.0261
 6799UDC     C774785   7.579  11.970  12.965 -0.0512 -0.5860 -0.1109
 6799UDC     C874786   7.661  11.893  12.860 -0.1993  0.0821  0.9628
 6799UDC     C974787   7.618  11.742  12.867 -0.2537 -0.5601  0.2157
 6799UDC    C1074788   7.627  11.654  13.000 -0.1158 -1.2355 -0.4435
 6799UDC    C1174789   7.587  11.508  12.958 -0.1645 -0.5610 -0.5642
 6800UDC     C174790  19.949  12.377   2.593  0.9458 -0.6392 -0.7241
 6800UDC     C274791  20.059  12.288   2.533 -0.3502  0.1815  0.9482
 6800UDC     C374792  20.106  12.184   2.633 -0.1564  0.0715  0.3778
 6800UDC     C474793  20.129  12.247   2.775 -0.3450  0.4878  0.0815
 6800UDC     C574794  20.198  12.154   2.879 -0.8295 -0.4256  0.1548
 6800UDC     C674795  20.176  12.006   2.887 -0.6331 -0.8625  0.7792
 6800UDC     C774796  20.050  11.966   2.975 -0.2796  0.1744  0.2299
 6800UDC     C874797  20.021  11.818   2.972  1.1601 -0.1122  0.2784
 6800UDC     C974798  19.997  11.740   2.844  0.2115 -0.3429  0.4370
 6800UDC    C1074799  19.962  11.594   2.873  0.5148  1.3338  0.4293
 6800UDC    C1174800  19.838  11.588   2.972 -0.4086  0.6680 -0.0304
 6801UDC     C174801   1.122   0.382   4.278  0.3437  0.5657  0.6770
 6801UDC     C274802   1.008   0.487   4.255  0.2797 -0.1041 -0.8043
 6801UDC     C374803   0.930   0.471   4.128 -0.6602  0.0463 -0.0583
 6801UDC     C474804   0.798   0.544   4.111  1.0396 -0.2202  0.3656
 6801UDC     C574805   0.800   0.702   4.132 -0.4735  1.1823 -0.1384
 6801UDC     C674806   0.667   0.757   4.146  0.5389 -0.1838  0.5142
 6801UDC     C774807   0.660   0.889   4.066 -0.2820 -0.4632  0.5249
 6801UDC     C874808   0.664   0.844   3.919 -0.4485  0.3238 -0.3847
 6801UDC     C974809   0.585   0.932   3.818  1.2515 -0.4297  0.4970
 6801UDC    C1074810   0.619   1.082   3.800 -0.8646  0.4392  0.5269
 6801UDC    C1174811   0.587   1.162   3.671  1.0593 -1.4001  0.0433
 6802UDC     C174812   9.394  18.533  17.930  0.0661  1.2278 -0.5002
 6802UDC     C274813   9.440  18.480  17.787 -0.9397  0.4470 -0.8642
 6802UDC     C374814   9.362  18.550  17.676 -1.1513 -0.9033  0.6965
 6802UDC     C474815   9.404  18.507  17.530  0.6013 -0.1004 -0.2972
 6802UDC     C574816   9.374  18.596  17.401 -0.4010 -0.4606  0.7819
 6802UDC     C674817   9.328  18.506  17.280 -0.6598 -0.2956  0.6564
 6802UDC     C774818   9.323  18.572  17.141 -0.1232 -0.6515 -0.0571
 6802UDC     C874819   9.223  18.508  17.042  0.6583  0.3635 -0.2478
 6802UDC     C974820   9.212  18.600  16.919 -0.2427  0.3273  1.0833
 6802UDC    C1074821   9.090  18.616  16.823  0.8101  1.2250  0.2564
 6802UDC    C1174822   9.125  18.681  16.688  1.2541  0.3850 -0.1335
 6803UDC     C174823   3.500   5.630  17.559  0.5746  0.6571  0.2174
 6803UDC     C274824   3.344   5.627  17.519 -1.6822  1.5238 -0.1111
 6803UDC     C374825   3.262   5.611  17.650  0.3808 -0.3620  0.6125
 6803UDC     C474826   3.274   5.734  17.741 -0.6379 -1.2232  0.0871
 6803UDC     C574827   3.214   5.713  17.881 -0.4370  0.2455  1.1338
 6803UDC     C674828   3.086   5.629  17.868 -0.2361  0.9904 -0.4018
 6803UDC     C774829   2.955   5.706  17.832 -0.5020 -0.0351 -0.4340
 6803UDC     C874830   2.831   5.614  17.830  0.0997 -0.5408  0.2451
 6803UDC     C974831   2.797   5.567  17.972  0.0977 -0.7540  0.7626
 6803UDC    C1074832   2.661   5.510  17.982  1.0127  0.5303 -0.4430
 6803UDC    C1174833   2.551   5.625  17.989 -1.4166  0.5065  0.0366
 6804UDC     C174834  11.624  19.606  14.813  0.9876 -0.9237 -0.1201
 6804UDC     C274835  11.621  19.633  14.661  0.9111  0.0902 -0.8794
 6804UDC     C374836  11.691  19.755  14.601 -0.3031  0.4742 -0.5065
 6804UDC     C474837  11.681  19.765  14.446 -0.4031  0.4495  0.5844
 6804UDC     C574838  11.760  19.882  14.381 -0.2652 -0.7588  0.5158
 6804UDC     C674839  11.729  20.033  14.420  0.4212  0.4572 -0.5640
 6804UDC     C774840  11.629  20.097  14.323  0.0891 -1.0187  0.4494
 6804UDC     C874841  11.588  20.242  14.366 -0.2646 -0.4516 -0.3623
 6804UDC     C974842  11.506  20.216  14.490  0.7383 -0.2493 -0.0115
 6804UDC    C1074843  11.493  20.350  14.559  0.2379 -0.1823 -0.5924
 6804UDC    C1174844  11.631  20.407  14.594  0.7712 -1.0013  0.7269
 6805UDC     C174845  16.409  18.033   9.779  0.1248  0.4624  1.0206
 6805UDC     C274846  16.359  18.140   9.883  0.1448 -0.2067  0.9468
 6805UDC     C374847  16.470  18.190   9.987  1.5759  1.3744 -0.7984
 6805UDC     C474848  16.580  18.271   9.918  0.1391 -1.6307 -0.1210
 6805UDC     C574849  16.679  18.347  10.019  0.2975 -0.2326 -0.9638
 6805UDC     C674850  16.809  18.381   9.942 -0.2955 -0.6458  0.1947
 6805UDC     C774851  16.911  18.267   9.916 -0.2918 -0.9302  0.0960
 6805UDC     C874852  16.998  18.298   9.796  0.7228 -0.6636 -1.9130
 6805UDC     C974853  17.104  18.408   9.846 -0.4820  0.6968  0.3505
 6805UDC    C1074854  17.224  18.428   9.749 -0.3388 -0.1859  0.6799
 6805UDC    C1174855  17.339  18.521   9.797  0.2285 -0.6498 -0.5312
 6806UDC     C174856  10.530   7.966  19.990 -0.4491  0.1610  0.4953
 6806UDC     C274857  10.562   7.895  19.860 -1.1864 -0.7117 -0.0474
 6806UDC     C374858  10.609   8.005  19.761 -0.5136 -0.2153  0.1820
 6806UDC     C474859  10.682   8.138  19.805  0.3362 -0.2658 -0.0196
 6806UDC     C574860  10.658   8.263  19.718 -0.1173 -0.2349  1.1360
 6806UDC     C674861  10.677   8.401  19.775  1.3505 -1.6364 -0.0465
 6806UDC     C774862  10.695   8.397  19.926 -1.1686  0.9828  0.8364
 6806UDC     C874863  10.709   8.516  20.020  0.6100 -0.1780 -0.5136
 6806UDC     C974864  10.586   8.599  20.056 -0.3027 -0.1912  0.6487
 6806UDC    C1074865  10.644   8.721  20.142 -0.2429  0.4428 -0.2814
 6806UDC    C1174866  10.525   8.799  20.203  0.0991  0.5128  1.1093
 6807UDC     C174867   5.663  13.719   9.649  0.3134 -0.7558 -0.7926
 6807UDC     C274868   5.538  13.800   9.613 -0.7117 -0.0248 -0.1849
 6807UDC     C374869   5.543  13.909   9.731  0.4775  0.3665 -0.3408
 6807UDC     C474870   5.674  13.973   9.778 -1.0896  0.4328 -0.8469
 6807UDC     C574871   5.766  14.016   9.665 -1.2723  0.1953 -0.7603
 6807UDC     C674872   5.817  14.157   9.701 -0.0513 -0.4997 -0.1403
 6807UDC     C774873   5.889  14.176   9.844  0.3410 -0.5879 -0.3024
 6807UDC     C874874   6.016  14.092   9.843 -0.5303  0.0687 -0.2409
 6807UDC     C974875   6.118  14.111   9.958  0.5385 -0.0640 -0.3810
 6807UDC    C1074876   6.224  14.225   9.951 -0.4044 -0.1970 -0.2637
 6807UDC    C1174877   6.172  14.363   9.998 -0.0173  0.9716 -0.5652
 6808UDC     C174878  17.516  17.005  16.648 -0.5768 -0.0592 -1.1897
 6808UDC     C274879  17.549  17.036  16.797 -0.6018 -0.9627  1.0168
 6808UDC     C374880  17.512  16.940  16.911  0.8078 -0.1418  0.0672
 6808UDC     C474881  17.552  16.969  17.057 -0.2619 -0.1576 -0.4551
 6808UDC     C574882  17.509  16.853  17.147 -0.7171 -0.4647 -0.4045
 6808UDC     C674883  17.538  16.887  17.295  0.6414  0.2279  0.4942
 6808UDC     C774884  17.513  16.790  17.408  0.6572  0.8076 -0.6148
 6808UDC     C874885  17.451  16.846  17.536 -0.1884 -0.1277 -0.8032
 6808UDC     C974886  17.538  16.908  17.653 -0.5759 -0.0605  0.5895
 6808UDC    C1074887  17.663  16.834  17.690  0.0075 -0.9267  0.3673
 6808UDC    C1174888  17.657  16.729  17.802 -0.4469  0.4285  0.4580
 6809UDC     C174889   1.220   9.234  18.740 -0.3756 -0.5338  0.3125
 6809UDC     C274890   1.358   9.205  18.807  0.0428 -0.7858  0.3343
 6809UDC     C374891   1.346   9.120  18.932  0.3572 -0.2458  0.1972
 6809UDC     C474892   1.478   9.041  18.952 -0.4336  0.3081 -0.5752
 6809UDC     C574893   1.511   8.977  19.085  0.0664  1.3246  0.7546
 6809UDC     C674894   1.457   8.835  19.100  0.5619 -0.7732 -0.7630
 6809UDC     C774895   1.491   8.778  19.239  0.7115  0.0879  0.3151
 6809UDC     C874896   1.475   8.622  19.225  0.1017 -0.0818 -0.0029
 6809UDC     C974897   1.344   8.564  19.165  0.6952 -1.1324 -0.0296
 6809UDC    C1074898   1.334   8.415  19.183  0.4069  0.7125 -0.8067
 6809UDC    C1174899   1.298   8.338  19.313  0.4244  0.1665  0.5546
 6810UDC     C174900  10.264   1.416  13.508 -0.8415  0.1904 -0.8478
 6810UDC     C274901  10.230   1.273  13.458 -0.2150  0.9167  0.6531
 6810UDC     C374902  10.303   1.210  13.337 -0.7581 -0.0770  0.9981
 6810UDC     C474903  10.435   1.150  13.386 -1.7102  0.9412 -0.1869
 6810UDC     C574904  10.410   1.057  13.502 -1.2343  1.1751 -0.5526
 6810UDC     C674905  10.527   0.960  13.527 -0.6605  0.8250  0.6113
 6810UDC     C774906  10.546   0.849  13.417  0.3004 -0.3808 -0.6522
 6810UDC     C874907  10.697   0.820  13.393 -0.4273  1.5738  0.8042
 6810UDC     C974908  10.726   0.772  13.242  0.5086  0.1819 -0.6590
 6810UDC    C1074909  10.622   0.654  13.196  0.7464 -0.4790  0.3264
 6810UDC    C1174910  10.574   0.633  13.058 -0.6536  0.0781  0.8842
 6811UDC     C174911  17.580   9.706   9.232 -0.5972 -0.0221  0.4424
 6811UDC     C274912  17.438   9.717   9.164 -0.4531  1.2278 -0.7434
 6811UDC     C374913  17.367   9.839   9.210 -0.8752 -0.6482 -0.2179
 6811UDC     C474914  17.256   9.881   9.121  0.1682  0.0335  0.6763
 6811UDC     C574915  17.272   9.861   8.969  0.2915 -0.5262  0.2373
 6811UDC     C674916  17.159   9.923   8.890  0.5024  0.5422 -0.0426
 6811UDC     C774917  17.126  10.065   8.933  0.6043 -0.2758 -1.0850
 6811UDC     C874918  17.020  10.113   8.836 -0.2534 -0.5262 -0.5867
 6811UDC     C974919  17.008  10.271   8.834 -0.8357 -0.1181  0.4925
 6811UDC    C1074920  16.982  10.327   8.974 -1.4394  0.3669  0.4508
 6811UDC    C1174921  16.840  10.266   8.995  0.1087  0.6957  0.4556
 6812UDC     C174922   4.577  18.897   2.261 -0.4516  0.3836 -0.5246
 6812UDC     C274923   4.533  18.830   2.389 -0.5804 -0.6599  0.6962
 6812UDC     C374924   4.642  18.841   2.501  0.6390  0.1709 -0.9914
 6812UDC     C474925   4.566  18.825   2.632  0.1798 -0.8387  0.5511
 6812UDC     C574926   4.661  18.827   2.754  0.2068 -0.5807  0.4838
 6812UDC     C674927   4.711  18.971   2.762  0.4270 -0.3378 -0.7025
 6812UDC     C774928   4.605  19.073   2.811  0.0951 -0.7934 -0.6161
 6812UDC     C874929   4.636  19.221   2.846  0.8120 -0.3660 -0.2494
 6812UDC     C974930   4.507  19.310   2.852 -0.4972  0.7864  0.4095
 6812UDC    C1074931   4.405  19.258   2.957 -1.0550  1.0278  0.4187
 6812UDC    C1174932   4.271  19.326   2.934  0.7390 -0.3838  0.8187
 6813UDC     C174933  12.189  14.815  16.709 -0.9242 -0.3532 -0.7392
 6813UDC     C274934  12.226  14.753  16.574 -1.3471 -0.2769  0.5950
 6813UDC     C374935  12.257  14.601  16.602 -0.0896  0.5493 -0.3785
 6813UDC     C474936  12.142  14.544  16.679 -0.0712 -0.4788 -0.8815
 6813UDC     C574937  12.206  14.410  16.705 -0.5045  0.4527 -1.2364
 6813UDC     C674938  12.126  14.334  16.813  1.2827 -0.6905  0.9306
 6813UDC     C774939  12.140  14.183  16.808 -0.8578 -0.2262 -1.4596
 6813UDC     C874940  12.047  14.134  16.918  0.2700 -0.1128 -1.2158
 6813UDC     C974941  11.918  14.212  16.930  0.2894 -0.1868 -0.5396
 6813UDC    C1074942  11.801  14.165  17.017  0.0453 -0.2500 -0.8897
 6813UDC    C1174943  11.676  14.259  17.015 -0.0491  0.6222  0.6154
 6814UDC     C174944   5.478   4.433  18.392  0.5587 -0.8210 -0.1851
 6814UDC     C274945   5.534   4.562  18.339 -0.5311  0.2978 -0.7732
 6814UDC     C374946   5.645   4.540  18.231 -0.1842  1.1327  0.3057
 6814UDC     C474947   5.727   4.652  18.171 -1.1090  0.5412  0.8937
 6814UDC     C574948   5.795   4.747  18.270 -1.5576 -0.5499  0.3027
 6814UDC     C674949   5.921   4.809  18.209 -0.6454  0.7249 -0.4801
 6814UDC     C774950   6.010   4.885  18.312 -0.3551  0.9532 -1.3590
 6814UDC     C874951   6.045   4.778  18.420  0.6465  0.6803  0.5911
 6814UDC     C974952   6.130   4.827  18.542  0.3915 -0.7581  0.2484
 6814UDC    C1074953   6.226   4.726  18.606 -0.2480 -0.3999  0.7587
 6814UDC    C1174954   6.364   4.792  18.630  1.5423 -0.4935 -1.0984
 6815UDC     C174955  17.271  17.839  13.394  0.3226 -0.4789 -1.2610
 6815UDC     C274956  17.221  17.955  13.308  0.9015  0.6613  0.4146
 6815UDC     C374957  17.114  18.040  13.378 -0.9011 -0.5118  1.2378
 6815UDC     C474958  17.119  18.200  13.351 -0.0542 -0.5909 -0.1190
 6815UDC     C574959  17.008  18.283  13.418  0.3910 -0.0355 -0.2716
 6815UDC     C674960  16.965  18.417  13.349  0.2234  1.3893 -1.0628
 6815UDC     C774961  16.848  18.496  13.401 -0.2908  0.2540 -0.5602
 6815UDC     C874962  16.880  18.595  13.517  0.6569  0.2831 -0.4091
 6815UDC     C974963  16.910  18.738  13.489 -0.7913  0.1327 -0.0993
 6815UDC    C1074964  16.805  18.842  13.452  0.6315 -0.0632 -0.0320
 6815UDC    C1174965  16.873  18.963  13.381 -0.3881  0.3412 -0.3005
 6816UDC     C174966   2.166  14.812   1.791 -0.4820 -0.7438  0.2634
 6816UDC     C274967   2.074  14.781   1.901  0.1338 -0.3767 -0.3965
 6816UDC     C374968   1.982  14.895   1.944  0.4579 -0.3535 -0.6778
 6816UDC     C474969   2.014  14.988   2.061  0.2638 -0.4937  0.5007
 6816UDC     C574970   1.917  15.092   2.111  0.7080  1.2224 -0.3071
 6816UDC     C674971   1.933  15.236   2.056  0.3908  0.3901 -0.5286
 6816UDC     C774972   1.812  15.321   2.054  1.2319 -0.1016 -1.1731
 6816UDC     C874973   1.762  15.340   2.202 -0.2416  0.2856 -0.6110
 6816UDC     C974974   1.839  15.442   2.285  0.0548  0.5738  0.0946
 6816UDC    C1074975   1.861  15.590   2.240  0.6474  0.5987  0.4400
 6816UDC    C1174976   1.744  15.682   2.274 -0.2291 -0.1064 -0.4672
 6817UDC     C174977   0.116  11.687  12.451  0.1874 -0.1013  0.3577
 6817UDC     C274978   0.178  11.589  12.355 -0.5177  0.5290  0.8182
 6817UDC     C374979   0.108  11.568  12.213  0.7100 -0.4277  0.1416
 6817UDC     C474980   0.174  11.627  12.093 -0.6521  0.2136  0.4741
 6817UDC     C574981   0.178  11.774  12.052  0.1772 -1.1427 -0.6328
 6817UDC     C674982   0.255  11.771  11.920 -0.5669 -0.5335 -0.0371
 6817UDC     C774983   0.231  11.882  11.817 -0.6806  0.5507  0.7478
 6817UDC     C874984   0.349  11.882  11.720  1.1536 -0.2883  0.9351
 6817UDC     C974985   0.489  11.898  11.776  0.8834  0.7084 -0.2908
 6817UDC    C1074986   0.599  11.901  11.676 -0.2738  0.0082 -0.5809
 6817UDC    C1174987   0.749  11.888  11.725 -0.1689 -0.1958 -1.3322
 6818UDC     C174988   1.630   2.594  10.783 -0.3926  0.1393  1.1070
 6818UDC     C274989   1.646   2.538  10.919  0.5968 -0.1075 -0.3459
 6818UDC     C374990   1.512   2.529  11.010  0.4708  0.4563 -0.0363
 6818UDC     C474991   1.424   2.408  10.984 -0.8850 -0.4630 -0.0820
 6818UDC     C574992   1.491   2.272  10.989 -0.1741  0.5741 -0.8958
 6818UDC     C674993   1.394   2.170  11.063 -0.0226  0.7091 -0.8574
 6818UDC     C774994   1.467   2.037  11.082  0.1603  0.6062  0.1246
 6818UDC     C874995   1.524   2.023  11.227 -0.3322 -0.9744  0.6652
 6818UDC     C974996   1.603   1.892  11.260 -0.7762  0.1157  0.1347
 6818UDC    C1074997   1.679   1.891  11.401 -0.7719  0.1810  0.0562
 6818UDC    C1174998   1.672   1.762  11.488 -1.0933 -0.3084  0.4905
 6819UDC     C174999  16.690  15.601  18.998  0.1504 -0.7021  0.4032
 6819UDC     C275000  16.725  15.511  18.878 -0.4637  0.9392 -0.3222
 6819UDC     C375001  16.605  15.517  18.784  1.1649  0.1208 -0.7900
 6819UDC     C475002  16.608  15.405  18.682 -0.4966 -0.4789  0.8355
 6819UDC     C575003  16.487  15.398  18.594 -0.0333  0.6942  0.0789
 6819UDC     C675004  16.509  15.343  18.450  0.1321 -0.0334 -1.3441
 6819UDC     C775005  16.392  15.259  18.397  0.5587  0.5094 -0.5673
 6819UDC     C875006  16.422  15.135  18.306 -0.0320 -0.4603 -0.0781
 6819UDC     C975007  16.305  15.051  18.252  0.1868  1.0227 -0.6552
 6819UDC    C1075008  16.339  14.902  18.254 -0.0780  1.3487 -0.3220
 6819UDC    C1175009  16.398  14.873  18.119  0.4209  1.0222  0.9769
 6820UDC     C175010   2.047   3.172  19.060  0.2729  0.0197 -0.1406
 6820UDC     C275011   1.920   3.099  19.109  0.3968  1.0027 -0.1463
 6820UDC     C375012   1.789   3.151  19.063 -0.3967  0.0339 -0.1480
 6820UDC     C475013   1.672   3.110  19.157  0.6734  0.3554  1.0129
 6820UDC     C575014   1.527   3.169  19.101 -0.0746 -0.1769  0.4170
 6820UDC     C675015   1.519   3.136  18.951 -1.1727 -1.1425  1.3194
 6820UDC     C775016   1.410   3.217  18.882 -0.8548 -0.9575  0.0149
 6820UDC     C875017   1.413   3.211  18.733 -0.2879  0.1051  0.1157
 6820UDC     C975018   1.348   3.327  18.656  0.7771  0.4402 -0.3450
 6820UDC    C1075019   1.197   3.318  18.658  0.2874  0.3088  0.1218
 6820UDC    C1175020   1.119   3.370  18.785  0.2881  0.4193 -0.7875
 6821UDC     C175021  18.693  17.905   8.635 -0.2144  0.0999  0.3933
 6821UDC     C275022  18.788  17.782   8.641  0.0365 -0.6152 -0.3432
 6821UDC     C375023  18.759  17.708   8.780  0.4249  0.2054 -0.4881
 6821UDC     C475024  18.819  17.773   8.905  1.0738  0.4028  1.1253
 6821UDC     C575025  18.747  17.740   9.036  0.0827 -0.0232  0.2294
 6821UDC     C675026  18.789  17.843   9.144 -0.5999  0.9774 -0.1279
 6821UDC     C775027  18.715  17.980   9.146 -0.0567  0.3711  0.0643
 6821UDC     C875028  18.765  18.080   9.247  0.2806  0.0619 -0.1407
 6821UDC     C975029  18.699  18.218   9.251  0.1685  1.2484  0.6642
 6821UDC    C1075030  18.772  18.317   9.347  0.0963  0.7842 -0.6794
 6821UDC    C1175031  18.919  18.343   9.303 -0.2943 -1.1773  0.3218
 6822UDC     C175032   6.572  15.938  11.534  1.1330  0.1359  0.0273
 6822UDC     C275033   6.632  15.800  11.501 -0.6294 -0.5580 -0.2769
 6822UDC     C375034   6.677  15.696  11.605  0.5313 -0.1215 -0.3213
 6822UDC     C475035   6.574  15.699  11.726  1.1172  0.2460 -0.4788
 6822UDC     C575036   6.591  15.621  11.858 -0.0487 -0.7058  0.6376
 6822UDC     C675037   6.733  15.634  11.905  0.3971 -0.2079 -1.0918
 6822UDC     C775038   6.716  15.652  12.057 -0.3729 -0.0388 -0.9628
 6822UDC     C875039   6.834  15.597  12.142  0.0986 -0.2453 -0.0704
 6822UDC     C975040   6.799  15.617  12.294 -1.6701 -0.2005 -0.8104
 6822UDC    C1075041   6.693  15.528  12.344 -0.1512  0.7852 -0.3357
 6822UDC    C1175042   6.725  15.477  12.481  0.1303 -0.1587 -0.4397
 6823UDC     C175043  16.974  18.395   7.744  1.7991 -0.5071  0.2311
 6823UDC     C275044  16.989  18.551   7.751 -1.1243  0.5848 -0.8968
 6823UDC     C375045  17.000  18.624   7.620  0.8175 -0.1602  0.1439
 6823UDC     C475046  16.857  18.656   7.569  0.3348  0.7054 -0.6729
 6823UDC     C575047  16.844  18.734   7.440 -0.5852  0.6685 -1.7104
 6823UDC     C675048  16.715  18.714   7.359 -0.0339 -0.1351 -0.6124
 6823UDC     C775049  16.715  18.769   7.225  0.6092  0.0799 -0.2450
 6823UDC     C875050  16.585  18.734   7.171 -0.0516  0.6127 -0.0714
 6823UDC     C975051  16.584  18.766   7.020 -0.7180  0.1592  1.9136
 6823UDC    C1075052  16.686  18.670   6.949 -0.0430 -0.4061  0.7130
 6823UDC    C1175053  16.671  18.686   6.799 -0.2632  1.4537 -0.2475
 6824UDC     C175054  18.594  10.642  18.695  0.6860 -0.1332 -0.1049
 6824UDC     C275055  18.652  10.548  18.804  0.2870 -0.1397  0.9839
 6824UDC     C375056  18.686  10.613  18.938  0.6369 -0.2904 -0.1350
 6824UDC     C475057  18.746  10.523  19.044 -0.2772  0.0722 -1.5028
 6824UDC     C575058  18.879  10.453  19.032  0.5488  0.3911  0.3686
 6824UDC     C675059  19.000  10.543  18.997  0.3387  0.7727  0.9265
 6824UDC     C775060  19.137  10.487  19.043  0.7840  1.1856  0.0159
 6824UDC     C875061  19.267  10.565  19.003 -0.2353  0.3640 -0.6129
 6824UDC     C975062  19.369  10.518  19.111 -0.1766  0.6404  0.0467
 6824UDC    C1075063  19.499  10.600  19.105 -0.6654  0.3590 -0.2293
 6824UDC    C1175064  19.565  10.636  18.976 -0.5343  0.0902  0.7831
 6825UDC     C175065  19.662   6.456  12.712  0.7072  0.4539 -0.9134
 6825UDC     C275066  19.564   6.342  12.758  0.7453 -0.2784  0.4744
 6825UDC     C375067  19.420   6.375  12.711 -0.0673 -0.3914  0.5042
 6825UDC     C475068  19.332   6.247  12.727 -1.0176  0.3532  1.0935
 6825UDC     C575069  19.417   6.134  12.804 -0.5985  0.5923  0.8391
 6825UDC     C675070  19.347   6.051  12.906 -0.6464 -1.5088  0.5151
 6825UDC     C775071  19.264   5.927  12.847  0.3581 -0.1764  0.7685
 6825UDC     C875072  19.122   5.926  12.904  0.7215  0.2900 -0.6114
 6825UDC     C975073  19.077   5.795  12.842  0.1657  0.5742  0.1615
 6825UDC    C1075074  18.928   5.758  12.847  0.5257 -0.0340 -0.5277
 6825UDC    C1175075  18.894   5.651  12.949  0.0490 -0.3229 -0.5234
 6826UDC     C175076   8.187  18.051   3.678 -0.3391  1.1173  0.7442
 6826UDC     C275077   8.301  18.065   3.777  0.8446  0.3772 -0.1213
 6826UDC     C375078   8.429  18.106   3.710 -0.6610  0.0459  0.2902
 6826UDC     C475079   8.417  18.236   3.627 -0.7538 -1.2944 -0.9564
 6826UDC     C575080   8.483  18.357   3.690  0.1865 -0.9210 -0.4234
 6826UDC     C675081   8.466  18.501   3.641  0.2690 -0.0891 -1.0801
 6826UDC     C775082   8.512  18.596   3.754 -0.7945 -0.1299  0.3023
 6826UDC     C875083   8.664  18.612   3.782 -0.2146  0.3221 -0.2721
 6826UDC     C975084   8.686  18.679   3.929  0.4397  0.6629  1.2991
 6826UDC    C1075085   8.826  18.688   3.997  0.5689 -0.0010  0.1754
 6826UDC    C1175086   8.895  18.553   4.018  0.1332  0.3552 -0.0029
 6827UDC     C175087   6.631   2.707  10.107 -0.3431  1.1742  1.4309
 6827UDC     C275088   6.747   2.611  10.078  0.4634  0.4023 -0.5782
 6827UDC     C375089   6.766   2.626   9.919  0.2546  0.0122 -0.5733
 6827UDC     C475090   6.831   2.508   9.848 -1.2219  0.4678 -0.0283
 6827UDC     C575091   6.788   2.371   9.896  0.7295 -0.0573 -0.1981
 6827UDC     C675092   6.734   2.251   9.809 -0.0846 -0.5961 -0.0338
 6827UDC     C775093   6.606   2.196   9.871 -0.1966 -0.6359 -0.0599
 6827UDC     C875094   6.539   2.092   9.786 -0.5360  0.4661 -0.3251
 6827UDC     C975095   6.598   1.950   9.798 -0.0744  0.0980  0.0774
 6827UDC    C1075096   6.724   1.934   9.713  0.0230  0.7156  0.7020
 6827UDC    C1175097   6.790   1.795   9.679 -0.4921 -0.5308  0.2087
 6828UDC     C175098   0.250   1.461   7.289  0.1312  0.4326 -0.4695
 6828UDC     C275099   0.248   1.582   7.382 -0.6548 -0.2631  0.5077
 6828UDC     C375100   0.144   1.571   7.502  0.1744  0.5842 -0.6664
 6828UDC     C475101   0.181   1.470   7.609  0.1241 -0.2813  0.5123
 6828UDC     C575102   0.067   1.464   7.710  0.4838 -1.1253  0.8151
 6828UDC     C675103   0.083   1.362   7.829 -0.0763 -1.0488  0.5205
 6828UDC     C775104   0.102   1.213   7.796 -0.6712 -0.9638 -0.3040
 6828UDC     C875105   0.136   1.132   7.922 -0.1897  0.1895 -0.3291
 6828UDC     C975106   0.056   1.002   7.922 -0.0136  1.1809  0.0235
 6828UDC    C1075107   0.116   0.886   7.843  0.1134  0.5678 -0.2923
 6828UDC    C1175108   0.217   0.798   7.919 -0.1664  0.5080  1.1660
 6829UDC     C175109   7.793  12.671  17.907  0.3417 -1.2379 -0.9150
 6829UDC     C275110   7.661  12.747  17.934 -0.1676 -0.1973 -0.0369
 6829UDC     C375111   7.682  12.876  18.005  0.0882 -0.6059 -0.6311
 6829UDC     C475112   7.750  12.981  17.915 -0.4014  0.3714  0.4597
 6829UDC     C575113   7.771  13.117  17.988 -0.5265 -0.2713 -1.0861
 6829UDC     C675114   7.912  13.108  18.054  1.7288  0.0125 -0.9121
 6829UDC     C775115   7.946  13.248  18.116  0.2375 -0.3081 -0.3927
 6829UDC     C875116   8.080  13.268  18.191 -0.0510 -0.3773  0.0645
 6829UDC     C975117   8.189  13.180  18.126 -0.2928 -1.8332  0.8291
 6829UDC    C1075118   8.337  13.189  18.170 -0.3076  0.0634  1.0386
 6829UDC    C1175119   8.432  13.139  18.059  0.0782 -0.3237 -0.4680
 6830UDC     C175120   7.374   4.931  12.348  0.0866  0.6097 -0.3293
 6830UDC     C275121   7.257   5.006  12.416  0.0047 -0.4264 -0.4659
 6830UDC     C375122   7.184   5.128  12.356  0.2892  0.8825  0.4251
 6830UDC     C475123   7.042   5.144  12.415  0.4661  0.4859 -0.1799
 6830UDC     C575124   6.948   5.027  12.370  0.9368 -0.1672  0.4594
 6830UDC     C675125   6.799   5.046  12.363  0.5551  0.4579  0.5352
 6830UDC     C775126   6.724   4.916  12.328 -0.3737 -0.5666  0.7548
 6830UDC     C875127   6.700   4.804  12.435 -0.6222 -0.2723 -0.0666
 6830UDC     C975128   6.555   4.774  12.420 -0.5997  0.6212  1.5817
 6830UDC    C1075129   6.493   4.908  12.461 -0.5670  0.1861  0.3827
 6830UDC    C1175130   6.479   4.923  12.615  0.0743 -0.7402 -0.3023
 6831UDC     C175131   3.691  18.506   1.620  0.7809  1.1346 -0.4408
 6831UDC     C275132   3.720  18.651   1.567  0.0631 -0.0392 -0.4766
 6831UDC     C375133   3.783  18.730   1.688 -0.0735  0.8553  0.9861
 6831UDC     C475134   3.933  18.690   1.712  0.9224 -0.1896 -0.1156
 6831UDC     C575135   3.989  18.724   1.857 -0.4786  0.0242 -0.5702
 6831UDC     C675136   4.081  18.616   1.905 -1.0155 -0.3735 -1.1940
 6831UDC     C775137   4.137  18.555   1.781  0.0386  1.0948 -0.1545
 6831UDC     C875138   4.250  18.451   1.790  0.3790  0.7173  0.4317
 6831UDC     C975139   4.262  18.391   1.645  0.4534  0.9221 -0.3636
 6831UDC    C1075140   4.403  18.323   1.625  0.1607 -0.0437  0.3042
 6831UDC    C1175141   4.439  18.203   1.724 -0.5767 -0.6502 -0.3225
 6832UDC     C175142  15.630   5.801   0.086 -0.7994 -0.4188 -0.6103
 6832UDC     C275143  15.602   5.954   0.109  0.6983  0.7040  0.3783
 6832UDC     C375144  15.648   5.999   0.245  0.0846  0.7732 -1.5503
 6832UDC     C475145  15.584   5.927   0.367 -1.0048 -0.1238  1.1546
 6832UDC     C575146  15.437   5.951   0.372 -0.6466 -0.3499 -0.4494
 6832UDC     C675147  15.365   5.905   0.497  0.8213  0.6529 -1.0073
 6832UDC     C775148  15.376   5.755   0.529 -0.4933  0.4790 -0.3862
 6832UDC     C875149  15.294   5.689   0.414 -0.9032 -0.8060  0.0513
 6832UDC     C975150  15.327   5.548   0.370  0.1034 -0.2005  0.6101
 6832UDC    C1075151  15.448   5.518   0.275  1.1160  0.7666 -1.2336
 6832UDC    C1175152  15.438   5.392   0.192  0.4146 -1.0752 -0.6004
 6833UDC     C175153  16.698   1.218   3.984 -0.0854  0.2729  1.0839
 6833UDC     C275154  16.605   1.113   4.038 -0.1561  1.4634 -0.1740
 6833UDC     C375155  16.651   1.022   4.163  0.0478  0.9043 -0.0509
 6833UDC     C475156  16.556   0.899   4.166  0.2593 -0.1743 -0.1391
 6833UDC     C575157  16.404   0.931   4.191  0.1900 -0.2558  1.0670
 6833UDC     C675158  16.300   0.826   4.147  0.1366 -0.2266  0.3629
 6833UDC     C775159  16.153   0.878   4.181 -1.4366  0.0925 -0.7522
 6833UDC     C875160  16.133   0.901   4.334  0.0577 -0.3316 -0.5993
 6833UDC     C975161  15.992   0.965   4.369 -0.5801  0.0962  0.1552
 6833UDC    C1075162  15.978   0.950   4.522 -0.1935 -0.2199  1.2908
 6833UDC    C1175163  15.867   1.057   4.561 -0.9918 -1.1602  0.3011
 6834UDC     C175164  10.882  13.224   3.736  0.2686 -0.0587 -1.6268
 6834UDC     C275165  10.890  13.303   3.608  0.1460 -0.3848  1.0406
 6834UDC     C375166  10.777  13.401   3.596 -1.2076  0.3118  0.3972
 6834UDC     C475167  10.805  13.476   3.462 -0.1402 -0.4213 -0.5836
 6834UDC     C575168  10.767  13.381   3.342 -0.0886 -0.3027 -0.4972
 6834UDC     C675169  10.729  13.451   3.206  0.6511  0.2031 -0.3485
 6834UDC     C775170  10.840  13.538   3.151  0.6007  0.6117  0.8725
 6834UDC     C875171  10.795  13.588   3.009  0.2459 -0.3701 -0.2406
 6834UDC     C975172  10.913  13.664   2.945 -1.2658  1.3337 -0.7482
 6834UDC    C1075173  10.959  13.796   2.991 -0.0592 -0.8862 -1.1337
 6834UDC    C1175174  11.068  13.852   2.904 -0.7536  0.0520 -0.5871
 6835UDC     C175175  15.321  12.404  14.578  1.2073  0.5798  0.7664
 6835UDC     C275176  15.194  12.367  14.492 -0.8148 -0.4011  0.0227
 6835UDC     C375177  15.187  12.444  14.358  1.1654  0.3638 -0.1712
 6835UDC     C475178  15.084  12.559  14.362  0.7363  0.8161 -0.4589
 6835UDC     C575179  15.024  12.601  14.233 -0.1942 -0.0603  0.6549
 6835UDC     C675180  15.028  12.505  14.108 -0.0532  0.3426 -1.0435
 6835UDC     C775181  14.903  12.481  14.024  0.1295 -0.1540 -1.0410
 6835UDC     C875182  14.890  12.333  14.000 -0.2506 -0.0220 -0.9681
 6835UDC     C975183  14.874  12.232  14.124  0.1316  0.7889 -0.4879
 6835UDC    C1075184  14.840  12.086  14.082  0.2925 -0.6491  0.3522
 6835UDC    C1175185  14.970  12.008  14.065 -0.0377 -0.0523  0.5493
 6836UDC     C175186   8.972  10.718  12.875 -0.4587 -0.5431 -0.2162
 6836UDC     C275187   8.999  10.869  12.850  0.4377 -0.8108  0.3252
 6836UDC     C375188   8.999  10.879  12.699 -0.4983  0.5324  0.1594
 6836UDC     C475189   9.130  10.883  12.615  0.0563  0.2587 -0.3602
 6836UDC     C575190   9.226  10.999  12.614  0.1255 -0.8715 -0.3001
 6836UDC     C675191   9.367  10.960  12.592  0.9064 -0.0946  1.4878
 6836UDC     C775192   9.421  10.881  12.710  0.1671  0.2627  0.2486
 6836UDC     C875193   9.413  10.957  12.842 -0.3622 -0.5444  0.9729
 6836UDC     C975194   9.464  10.876  12.960 -0.6000 -0.2358  0.3165
 6836UDC    C1075195   9.458  10.956  13.100  0.8129 -0.3505  0.5473
 6836UDC    C1175196   9.305  10.981  13.133  0.9653  0.0570  0.2234
 6837UDC     C175197  15.776   3.300  10.150 -1.0143  0.7233 -0.0251
 6837UDC     C275198  15.929   3.324  10.161 -0.4666  0.3990  0.6988
 6837UDC     C375199  15.998   3.234  10.267 -0.9232 -0.4771 -0.3602
 6837UDC     C475200  16.153   3.272  10.291  0.3739 -0.9218  0.2789
 6837UDC     C575201  16.241   3.171  10.370 -0.8574  0.0412  0.9469
 6837UDC     C675202  16.196   3.142  10.515 -0.0358  0.8295  1.8147
 6837UDC     C775203  16.291   3.207  10.617  0.2224 -0.7313  0.2803
 6837UDC     C875204  16.255   3.141  10.752  0.3198  0.0597 -0.3022
 6837UDC     C975205  16.371   3.172  10.848  0.5688 -0.3955  0.7495
 6837UDC    C1075206  16.339   3.112  10.991 -0.7699  0.1875 -0.1333
 6837UDC    C1175207  16.473   3.148  11.073  0.9262 -0.1602  0.2398
 6838UDC     C175208   0.515   6.526  12.783 -0.0808 -0.1327 -0.9340
 6838UDC     C275209   0.388   6.593  12.733  0.5286  0.1381  0.4550
 6838UDC     C375210   0.350   6.546  12.594 -0.4976  0.7794 -0.1249
 6838UDC     C475211   0.289   6.661  12.510 -0.0072  0.2011 -0.1745
 6838UDC     C575212   0.184   6.600  12.416 -0.9067  0.1742 -0.1766
 6838UDC     C675213   0.238   6.509  12.298 -0.4946 -0.2779 -0.0093
 6838UDC     C775214   0.120   6.421  12.245 -0.0244  0.4737 -0.0242
 6838UDC     C875215   0.055   6.318  12.341 -0.5029 -0.2257  0.1206
 6838UDC     C975216  -0.065   6.248  12.282  0.8194 -0.7996  0.4618
 6838UDC    C1075217  -0.184   6.346  12.267  0.8358 -0.4522  1.1647
 6838UDC    C1175218  -0.315   6.276  12.235  0.5752  0.2280  0.2326
 6839UDC     C175219   3.410  11.650  15.725  0.1547 -0.3999  0.6525
 6839UDC     C275220   3.359  11.569  15.840  1.8041  0.4768  0.2548
 6839UDC     C375221   3.240  11.480  15.781  1.0396 -0.2235  0.6890
 6839UDC     C475222   3.199  11.365  15.862  0.5846  0.6622 -1.4327
 6839UDC     C575223   3.096  11.271  15.789  0.3144  0.0653  0.3741
 6839UDC     C675224   3.053  11.147  15.872  0.0877  0.6441  0.0519
 6839UDC     C775225   2.978  11.030  15.798  0.0297 -1.1249 -0.2390
 6839UDC     C875226   2.922  10.930  15.907  0.6259  0.3610 -0.0137
 6839UDC     C975227   2.872  10.793  15.859  0.4804 -0.6139 -0.3244
 6839UDC    C1075228   2.798  10.721  15.977  0.0082  0.8246 -0.0439
 6839UDC    C1175229   2.741  10.581  15.954  0.4151 -0.5329 -1.1925
 6840UDC     C175230   2.377   1.004   2.124 -0.4153  0.6265 -0.2575
 6840UDC     C275231   2.473   1.078   2.028  1.6372  0.3257  0.4888
 6840UDC     C375232   2.565   1.188   2.085 -0.6236  0.9815 -0.6047
 6840UDC     C475233   2.512   1.331   2.082 -1.9256 -0.3529 -1.7877
 6840UDC     C575234   2.413   1.343   2.197  0.6160 -0.5785  0.0285
 6840UDC     C675235   2.395   1.495   2.221  0.0901 -0.4191 -1.2047
 6840UDC     C775236   2.290   1.555   2.316 -0.1786  0.0443 -0.4262
 6840UDC     C875237   2.169   1.607   2.241  0.2285 -0.6062 -0.5840
 6840UDC     C975238   2.068   1.515   2.172 -0.9693 -1.2284 -1.3893
 6840UDC    C1075239   1.928   1.561   2.215 -0.4382  0.0629 -0.2408
 6840UDC    C1175240   1.850   1.669   2.134  0.6076  0.7942 -0.0519
 6841UDC     C175241   3.581   9.476  16.197  1.0285 -0.2540 -0.2130
 6841UDC     C275242   3.440   9.532  16.229  0.1596  0.8398  0.0541
 6841UDC     C375243   3.426   9.562  16.380  0.3994 -0.0086 -0.0746
 6841UDC     C475244   3.339   9.680  16.418 -0.4073 -0.2238 -0.2427
 6841UDC     C575245   3.343   9.707  16.570 -0.0986 -0.4554  0.3345
 6841UDC     C675246   3.457   9.791  16.618 -0.5391  0.6647  0.4790
 6841UDC     C775247   3.439   9.874  16.741 -0.5024 -1.0990 -1.1390
 6841UDC     C875248   3.564   9.951  16.800 -0.2949 -0.5499 -0.4405
 6841UDC     C975249   3.542  10.102  16.779 -0.7896 -0.0258 -0.3091
 6841UDC    C1075250   3.433  10.180  16.846  0.5017 -1.2112  0.3534
 6841UDC    C1175251   3.389  10.301  16.758 -0.2557  0.8117 -0.5401
 6842UDC     C175252   8.104   6.421   1.969 -0.8876 -0.0947 -0.5069
 6842UDC     C275253   8.039   6.407   1.834 -0.4616 -0.6429  0.0780
 6842UDC     C375254   8.044   6.258   1.783  0.2414  0.0960  0.6084
 6842UDC     C475255   8.181   6.179   1.800 -1.0121 -0.1566  0.3191
 6842UDC     C575256   8.268   6.161   1.677  1.6287 -0.9742  0.4003
 6842UDC     C675257   8.245   6.013   1.628 -0.4837  0.2057  0.4701
 6842UDC     C775258   8.300   5.964   1.490  0.2350  1.1401  0.3480
 6842UDC     C875259   8.275   5.812   1.465 -0.2826 -0.6204  0.0778
 6842UDC     C975260   8.355   5.704   1.533  0.2789  0.8067  0.2640
 6842UDC    C1075261   8.298   5.561   1.492 -0.4803 -0.2183  0.3421
 6842UDC    C1175262   8.319   5.546   1.342  0.8480  0.0501  0.9441
 6843UDC     C175263  17.691   4.886  11.069 -0.3643  0.4516  0.1807
 6843UDC     C275264  17.622   4.750  11.098  0.4826  0.2619 -0.2688
 6843UDC     C375265  17.691   4.686  11.219 -0.4286 -1.0419  0.7549
 6843UDC     C475266  17.606   4.563  11.271 -1.3537  0.3876 -0.5469
 6843UDC     C575267  17.667   4.476  11.379 -0.3197 -0.8153 -0.2802
 6843UDC     C675268  17.573   4.380  11.445 -0.1484  1.2283 -0.0994
 6843UDC     C775269  17.484   4.451  11.547 -0.0039 -0.6386  0.8967
 6843UDC     C875270  17.443   4.389  11.684 -0.5819  0.1376  0.4759
 6843UDC     C975271  17.314   4.455  11.726  0.5664  0.2664 -0.1292
 6843UDC    C1075272  17.314   4.610  11.708 -0.2013  0.2426 -0.2991
 6843UDC    C1175273  17.195   4.683  11.668  0.9951 -0.1513  0.3839
 6844UDC     C175274  10.549  16.200  14.540  0.1836  0.3914 -1.1610
 6844UDC     C275275  10.415  16.265  14.524 -0.0145  0.8506 -0.1812
 6844UDC     C375276  10.398  16.352  14.649 -0.7502  0.6902 -0.1893
 6844UDC     C475277  10.317  16.483  14.639  0.7215  0.7675 -0.0603
 6844UDC     C575278  10.366  16.551  14.520 -0.8895 -0.8340  0.3476
 6844UDC     C675279  10.269  16.664  14.478  0.1315  0.1125  0.3884
 6844UDC     C775280  10.312  16.743  14.355 -0.2037 -0.1437 -0.2785
 6844UDC     C875281  10.310  16.668  14.219 -0.5028  0.2994  0.0409
 6844UDC     C975282  10.195  16.698  14.122  0.2959  0.4220 -0.1731
 6844UDC    C1075283  10.083  16.598  14.103 -1.0783  0.8772  0.1470
 6844UDC    C1175284   9.997  16.579  14.225 -0.9328 -0.6031  0.4990
 6845UDC     C175285   5.950   6.847  10.754 -1.3602  0.4725 -0.6930
 6845UDC     C275286   6.041   6.761  10.844  0.0633  0.1800 -1.2683
 6845UDC     C375287   5.967   6.627  10.870 -0.1227 -1.2662 -0.7654
 6845UDC     C475288   6.057   6.556  10.973  0.0264  0.3040 -0.2916
 6845UDC     C575289   6.065   6.622  11.109 -0.1871 -0.9095  0.3831
 6845UDC     C675290   6.199   6.592  11.183 -0.1282 -0.3237 -1.6549
 6845UDC     C775291   6.186   6.459  11.266 -0.7212 -0.1950 -0.1548
 6845UDC     C875292   6.218   6.323  11.203 -0.2287 -0.2373 -0.1414
 6845UDC     C975293   6.233   6.191  11.280  0.4350  0.0047  0.2312
 6845UDC    C1075294   6.275   6.086  11.173 -0.6769 -0.1851 -1.4603
 6845UDC    C1175295   6.165   6.072  11.069 -0.1267 -0.3505 -0.0891
 6846UDC     C175296  11.607  11.641   8.629 -0.6438  0.9055 -0.3255
 6846UDC     C275297  11.755  11.656   8.657  0.4270  0.5182  0.7233
 6846UDC     C375298  11.853  11.568   8.578 -1.1804 -0.0324 -0.8558
 6846UDC     C475299  11.790  11.431   8.537 -0.2827  0.3565 -0.5409
 6846UDC     C575300  11.889  11.350   8.453  0.7224  0.1504 -1.2347
 6846UDC     C675301  11.915  11.410   8.315  0.8989  0.1412 -0.0425
 6846UDC     C775302  11.981  11.320   8.211 -0.3185  0.2376  1.1175
 6846UDC     C875303  11.966  11.356   8.063 -0.6065 -0.0714  0.6598
 6846UDC     C975304  11.840  11.319   7.990 -0.0211 -0.5501  0.6377
 6846UDC    C1075305  11.813  11.172   7.977 -0.6518  0.3404  0.1437
 6846UDC    C1175306  11.854  11.106   7.845 -0.6070  0.0967  1.2840
 6847UDC     C175307  16.061   6.328   9.125 -0.9595  0.0652  0.2734
 6847UDC     C275308  16.016   6.426   9.015 -0.3053  0.1062  1.0174
 6847UDC     C375309  16.094   6.562   8.976  0.3500  0.7182 -0.3726
 6847UDC     C475310  16.140   6.653   9.083  0.4576 -1.4264 -0.6670
 6847UDC     C575311  16.025   6.735   9.142  0.0544  0.4260  0.5701
 6847UDC     C675312  15.947   6.821   9.036 -0.3207  0.3575 -0.7271
 6847UDC     C775313  15.815   6.889   9.092  0.2612  0.2671  0.7253
 6847UDC     C875314  15.754   7.003   9.002  0.6397  0.0805  0.0077
 6847UDC     C975315  15.631   7.062   9.082 -0.4866  0.0477  0.5363
 6847UDC    C1075316  15.513   6.962   9.071 -1.2023  0.5221 -0.4752
 6847UDC    C1175317  15.446   6.944   8.929  0.5662 -0.0416  1.0348
 6848UDC     C175318   6.797   5.450  19.340  1.0356 -0.5714  1.5435
 6848UDC     C275319   6.673   5.548  19.362 -0.5981 -0.7284  0.2497
 6848UDC     C375320   6.598   5.557  19.232 -0.1449 -0.8140  1.0726
 6848UDC     C475321   6.444   5.597  19.238 -0.0925 -1.0389  0.8252
 6848UDC     C575322   6.384   5.597  19.098 -0.6738  0.2155  1.3038
 6848UDC     C675323   6.402   5.477  19.004 -0.3895 -0.1555 -0.3844
 6848UDC     C775324   6.365   5.499  18.865 -0.4003 -0.0397  0.4997
 6848UDC     C875325   6.320   5.385  18.782 -0.4677  0.8685  0.7833
 6848UDC     C975326   6.335   5.424  18.637  0.9183 -0.2232 -1.3023
 6848UDC    C1075327   6.276   5.315  18.545 -0.9890 -0.9654  0.2405
 6848UDC    C1175328   6.367   5.187  18.531  0.1762 -0.3984 -0.7790
 6849UDC     C175329  18.615  12.359  18.126  0.7469  1.4298  1.0132
 6849UDC     C275330  18.505  12.282  18.194  0.6039  1.2510 -0.4468
 6849UDC     C375331  18.533  12.263  18.339  0.0030  1.7045 -0.4426
 6849UDC     C475332  18.619  12.138  18.374  0.3884 -0.8691 -0.6547
 6849UDC     C575333  18.664  12.122  18.523  0.4913  1.3823 -0.7924
 6849UDC     C675334  18.761  11.997  18.535  1.1951  0.3204  0.5678
 6849UDC     C775335  18.895  12.003  18.477 -0.2754  0.0268  0.3477
 6849UDC     C875336  18.953  11.884  18.401 -0.8795 -0.9547  0.2730
 6849UDC     C975337  19.105  11.911  18.341 -0.3366  1.2369  0.0819
 6849UDC    C1075338  19.174  11.784  18.283 -0.0443  0.1130  2.0261
 6849UDC    C1175339  19.179  11.764  18.125  0.7840 -0.1339 -0.1835
 6850UDC     C175340   2.032  12.342   3.723  0.0571  1.0646 -0.5315
 6850UDC     C275341   2.065  12.379   3.872 -0.1109 -0.1144  0.5402
 6850UDC     C375342   2.052  12.530   3.906  0.3143  0.1731 -0.4872
 6850UDC     C475343   2.166  12.631   3.951 -0.4005  1.2586  1.0195
 6850UDC     C575344   2.112  12.713   4.059  0.4642  0.3543  0.7834
 6850UDC     C675345   2.192  12.842   4.095  0.6302 -1.1300  0.5392
 6850UDC     C775346   2.132  12.949   4.189 -0.6592 -0.0636  0.5679
 6850UDC     C875347   2.232  13.055   4.246  0.6813 -0.2471  0.7633
 6850UDC     C975348   2.200  13.203   4.220  0.8064  0.7876 -0.3810
 6850UDC    C1075349   2.258  13.312   4.321 -0.1319  0.7836  0.2816
 6850UDC    C1175350   2.209  13.294   4.469  0.2396 -0.1155 -0.3095
 6851UDC     C175351  10.799  17.977  11.469 -0.3638  0.4232 -0.3452
 6851UDC     C275352  10.883  17.886  11.554 -0.6212  0.5408 -1.3143
 6851UDC     C375353  11.030  17.871  11.524 -0.0414  0.2176 -0.2850
 6851UDC     C475354  11.103  17.746  11.588  0.6576  0.3174  1.2677
 6851UDC     C575355  11.231  17.703  11.512 -0.2101 -1.1035  0.3008
 6851UDC     C675356  11.275  17.567  11.571 -0.6937  1.4092  0.8128
 6851UDC     C775357  11.434  17.554  11.580 -0.4480 -0.4261  0.5282
 6851UDC     C875358  11.490  17.560  11.722 -0.1792 -1.3411 -0.1047
 6851UDC     C975359  11.631  17.628  11.736  0.8569  0.3259  0.8712
 6851UDC    C1075360  11.682  17.625  11.883  0.8444  0.0161 -0.1832
 6851UDC    C1175361  11.597  17.725  11.966 -0.1308 -0.4148  0.6784
 6852UDC     C175362   9.310  13.389   8.837 -1.1981 -1.0419 -0.3178
 6852UDC     C275363   9.241  13.359   8.706  0.7562  0.3309  0.4248
 6852UDC     C375364   9.301  13.440   8.588 -0.5359 -0.4421  0.5555
 6852UDC     C475365   9.254  13.414   8.443  0.4257 -0.0914  0.3662
 6852UDC     C575366   9.362  13.465   8.349  0.4445  0.3180 -0.4096
 6852UDC     C675367   9.316  13.438   8.205 -0.1031 -0.5661 -0.4916
 6852UDC     C775368   9.404  13.502   8.089 -0.2496 -0.0063  0.2445
 6852UDC     C875369   9.339  13.465   7.955  0.1195 -0.5966 -1.4112
 6852UDC     C975370   9.337  13.317   7.912 -0.4246 -0.5391  0.4447
 6852UDC    C1075371   9.304  13.278   7.768 -0.2885  1.0518  0.8979
 6852UDC    C1175372   9.231  13.146   7.750 -0.6066  0.7346 -0.4615
 6853UDC     C175373   6.493  17.256   9.172 -0.2767  0.7024 -0.0072
 6853UDC     C275374   6.469  17.194   9.034 -0.9898 -1.3257 -0.6832
 6853UDC     C375375   6.342  17.256   8.968  0.4587  1.2642  1.1448
 6853UDC     C475376   6.318  17.165   8.839 -0.1722 -0.9671  0.7121
 6853UDC     C575377   6.186  17.205   8.775  0.3006 -0.2291 -0.6722
 6853UDC     C675378   6.159  17.135   8.644  0.3729  0.0009  0.5048
 6853UDC     C775379   6.019  17.177   8.588  0.0996 -0.4206  0.6631
 6853UDC     C875380   6.018  17.137   8.434  0.4744  0.1816  0.3662
 6853UDC     C975381   5.892  17.169   8.364  0.9671 -0.2682  0.8780
 6853UDC    C1075382   5.909  17.234   8.225  0.3766 -0.1175 -0.2732
 6853UDC    C1175383   5.788  17.281   8.145 -0.2569  0.3222 -0.4357
 6854UDC     C175384  16.966   3.984   5.206 -0.5145 -0.1962 -0.1984
 6854UDC     C275385  16.887   3.864   5.270 -0.6268  0.1561  0.4912
 6854UDC     C375386  16.953   3.726   5.251 -0.0326  0.4919 -0.8027
 6854UDC     C475387  17.053   3.705   5.362 -0.1854  0.3476  0.9349
 6854UDC     C575388  17.151   3.588   5.357  0.2365  0.9080  0.6635
 6854UDC     C675389  17.273   3.633   5.272  1.1114 -0.6915  0.1228
 6854UDC     C775390  17.375   3.524   5.275 -0.3719 -0.0386 -0.2134
 6854UDC     C875391  17.492   3.547   5.370  0.1245  0.1267  0.4779
 6854UDC     C975392  17.552   3.413   5.394 -1.2036  0.9614 -1.1980
 6854UDC    C1075393  17.469   3.316   5.478  1.0566 -0.3261 -0.4714
 6854UDC    C1175394  17.526   3.182   5.513  0.3572  0.7233  0.5299
 6855UDC     C175395   5.160  14.501   2.670 -0.7207 -0.8772  0.6350
 6855UDC     C275396   5.196  14.353   2.647 -0.6743  0.8897 -0.8974
 6855UDC     C375397   5.337  14.301   2.706  0.6846 -0.3041  0.1506
 6855UDC     C475398   5.349  14.266   2.856 -0.0353 -0.2656  0.3364
 6855UDC     C575399   5.498  14.267   2.900  1.7635  0.1349  0.0888
 6855UDC     C675400   5.542  14.152   2.821 -0.3700  0.1729 -0.0205
 6855UDC     C775401   5.700  14.140   2.840  0.5342  0.1276 -0.0186
 6855UDC     C875402   5.792  14.257   2.807 -0.2570  0.5401  0.2679
 6855UDC     C975403   5.807  14.291   2.657  0.7336  0.5058  0.5550
 6855UDC    C1075404   5.823  14.154   2.582  0.1939 -0.8153 -0.2238
 6855UDC    C1175405   5.953  14.081   2.598  0.0925 -0.0130 -0.1043
 6856UDC     C175406   9.442   0.298  18.357 -1.3652  0.9222  0.4342
 6856UDC     C275407   9.319   0.280  18.270  0.1260 -1.0614 -0.1832
 6856UDC     C375408   9.334   0.227  18.128 -0.2806 -0.7909  0.3290
 6856UDC     C475409   9.215   0.205  18.036 -0.4384  0.6567 -0.0340
 6856UDC     C575410   9.100   0.123  18.087  0.5258 -0.1371  0.9753
 6856UDC     C675411   9.116  -0.025  18.033 -0.9462 -0.2922  0.1697
 6856UDC     C775412   9.005  -0.130  18.055  0.3516 -0.4606  0.1260
 6856UDC     C875413   8.996  -0.139  18.214 -0.2132  0.1117 -0.6630
 6856UDC     C975414   8.904  -0.253  18.269  0.6733 -0.4244  0.2200
 6856UDC    C1075415   8.934  -0.392  18.213 -0.8063 -0.5862 -1.5219
 6856UDC    C1175416   9.022  -0.481  18.303 -0.0929 -0.9473  1.0011
 6857UDC     C175417   4.288  15.551  10.388 -1.1181  0.7785  0.3783
 6857UDC     C275418   4.355  15.511  10.526  0.4276  0.4911 -0.3378
 6857UDC     C375419   4.459  15.395  10.509 -0.3218 -0.0278 -0.0828
 6857UDC     C475420   4.593  15.442  10.449 -1.4980 -0.5577  0.0716
 6857UDC     C575421   4.688  15.325  10.381  0.4390 -0.9174  0.3849
 6857UDC     C675422   4.634  15.278  10.236 -0.1712  0.6130  0.3483
 6857UDC     C775423   4.563  15.141  10.232 -0.6864 -0.4569 -1.2688
 6857UDC     C875424   4.522  15.114  10.084  0.9950  0.7401  1.6606
 6857UDC     C975425   4.443  14.989  10.055 -0.6118  0.2932  0.1330
 6857UDC    C1075426   4.337  14.971  10.173 -0.1129 -0.4689 -0.7835
 6857UDC    C1175427   4.258  14.838  10.177  0.0285 -0.7375 -1.2563
 6858UDC     C175428  10.971   7.695   1.905 -0.1158  1.0537 -0.6360
 6858UDC     C275429  10.930   7.824   1.977  0.0408  1.1352  0.1373
 6858UDC     C375430  10.813   7.905   1.915  1.2023 -0.9611 -0.0707
 6858UDC     C475431  10.795   8.055   1.948 -0.4273  0.6505  0.0848
 6858UDC     C575432  10.693   8.115   1.847  0.5982 -0.6738 -0.4954
 6858UDC     C675433  10.552   8.061   1.835 -0.8731  0.5064  0.1275
 6858UDC     C775434  10.465   8.176   1.787  0.3068  0.0935  0.2326
 6858UDC     C875435  10.330   8.137   1.721  0.0512  0.9135  0.8865
 6858UDC     C975436  10.359   8.050   1.601 -0.0607 -0.8148 -0.6613
 6858UDC    C1075437  10.239   7.994   1.521 -0.0363 -0.2813 -0.3397
 6858UDC    C1175438  10.271   7.913   1.393  0.5079  0.1765  0.5099
 6859UDC     C175439   5.682  14.952   6.511  0.3999  0.1409  0.0976
 6859UDC     C275440   5.576  14.894   6.412 -0.6715  0.0477 -0.2283
 6859UDC     C375441   5.592  14.941   6.267 -0.1115 -0.2996 -0.4422
 6859UDC     C475442   5.583  15.099   6.239 -0.4570 -0.3693  0.0343
 6859UDC     C575443   5.627  15.121   6.100 -0.0674 -0.3107 -0.0737
 6859UDC     C675444   5.735  15.217   6.124  0.3856  0.2703 -0.0526
 6859UDC     C775445   5.773  15.312   6.018 -0.5410 -1.0849  0.2065
 6859UDC     C875446   5.905  15.392   6.045 -0.2056 -0.2247 -0.2339
 6859UDC     C975447   5.898  15.511   5.952 -0.8457  0.1113  0.2264
 6859UDC    C1075448   5.953  15.639   6.014  1.1263 -0.5238 -0.4695
 6859UDC    C1175449   5.917  15.623   6.165 -0.5504 -0.9621 -0.3415
 6860UDC     C175450   7.839  19.031  19.217  0.6273 -1.1270  0.1296
 6860UDC     C275451   7.693  19.086  19.245 -0.4805 -0.5645  0.8644
 6860UDC     C375452   7.647  19.125  19.384  0.6155 -0.2888  0.2234
 6860UDC     C475453   7.509  19.191  19.391 -0.3163  0.7230  0.1163
 6860UDC     C575454   7.388  19.111  19.359  0.4710  0.0123  1.1575
 6860UDC     C675455   7.247  19.168  19.381 -0.3187  0.3845  0.1656
 6860UDC     C775456   7.176  19.112  19.496 -0.4342  0.7776 -0.2216
 6860UDC     C875457   7.218  19.164  19.638 -0.8372 -0.1489  0.7841
 6860UDC     C975458   7.156  19.133  19.769 -0.8596  0.3434 -0.2704
 6860UDC    C1075459   7.188  18.977  19.783 -0.4117 -0.6376 -1.0166
 6860UDC    C1175460   7.146  18.930  19.924 -0.7370  0.6253 -0.2008
 6861UDC     C175461   5.374   2.992  19.772 -0.9464 -0.0372 -1.5233
 6861UDC     C275462   5.374   3.030  19.925 -0.4694  1.3019  0.4124
 6861UDC     C375463   5.344   2.915  20.012 -0.4135  0.7389 -0.6109
 6861UDC     C475464   5.369   2.933  20.165 -0.1284 -0.1449 -0.6061
 6861UDC     C575465   5.309   2.807  20.240 -0.4323  0.8261 -0.3963
 6861UDC     C675466   5.370   2.663  20.247 -0.4647  0.6727 -0.4545
 6861UDC     C775467   5.515   2.661  20.301 -0.1649  0.6442  1.2127
 6861UDC     C875468   5.520   2.574  20.421  0.8754 -0.2544 -0.4722
 6861UDC     C975469   5.643   2.601  20.510  0.5634  0.3253 -0.6426
 6861UDC    C1075470   5.740   2.491  20.547  0.4093  0.5528 -1.5167
 6861UDC    C1175471   5.684   2.390  20.650  1.1921 -0.1089 -0.4672
 6862UDC     C175472  14.667  17.607  18.129  0.0437  0.3137 -0.3706
 6862UDC     C275473  14.784  17.602  18.232  0.1673  0.8053 -0.1315
 6862UDC     C375474  14.899  17.697  18.204  0.5710 -0.8534 -0.0975
 6862UDC     C475475  14.877  17.822  18.279  0.5508 -1.1395  0.3888
 6862UDC     C575476  14.955  17.950  18.224 -0.1019  1.9071  0.0833
 6862UDC     C675477  14.922  18.095  18.260  0.2359  0.7169 -0.3516
 6862UDC     C775478  14.905  18.187  18.139 -0.1193  1.9334 -0.2504
 6862UDC     C875479  14.781  18.275  18.170  0.0450  0.1011 -0.8540
 6862UDC     C975480  14.753  18.382  18.071 -0.9311 -0.1629  0.4459
 6862UDC    C1075481  14.875  18.483  18.065 -0.5628 -0.8836  0.7358
 6862UDC    C1175482  14.882  18.573  17.947 -1.1143  0.2855 -0.1778
 6863UDC     C175483  15.945  18.974  18.715 -0.5083 -0.0468 -0.3526
 6863UDC     C275484  15.917  19.119  18.705 -0.1371 -0.5473  1.6138
 6863UDC     C375485  16.045  19.188  18.658  0.9746 -0.8102 -0.0577
 6863UDC     C475486  16.101  19.157  18.516  0.0202 -0.1418 -0.8008
 6863UDC     C575487  16.194  19.265  18.474  0.8017 -0.3056 -0.3837
 6863UDC     C675488  16.282  19.251  18.351 -0.5815  0.6574  0.2538
 6863UDC     C775489  16.192  19.233  18.226 -0.5037  0.8413 -0.4484
 6863UDC     C875490  16.271  19.267  18.102  0.7783 -0.8765  0.5632
 6863UDC     C975491  16.162  19.271  17.990  0.6101  0.0660 -0.5562
 6863UDC    C1075492  16.202  19.344  17.859 -0.0393  0.3499 -0.3361
 6863UDC    C1175493  16.257  19.493  17.890 -0.3182  1.6762  0.6035
 6864UDC     C175494   9.063  19.110   6.152 -0.0481  0.1893 -0.0762
 6864UDC     C275495   9.188  19.200   6.187 -0.7267 -1.3535  0.3629
 6864UDC     C375496   9.168  19.262   6.327  0.7274 -0.2018  0.0118
 6864UDC     C475497   9.289  19.335   6.374  0.7394 -0.6130 -0.9595
 6864UDC     C575498   9.410  19.252   6.419  0.7906 -0.3188 -0.0616
 6864UDC     C675499   9.552  19.319   6.441  0.6154 -0.9157  0.2299
 6864UDC     C775500   9.663  19.282   6.339  0.1454  0.1656 -0.1389
 6864UDC     C875501   9.640  19.365   6.202  1.1074  0.7952  0.8182
 6864UDC     C975502   9.769  19.416   6.142  0.5277 -0.1392  0.2643
 6864UDC    C1075503   9.730  19.526   6.037  0.2765 -0.5711 -0.0085
 6864UDC    C1175504   9.847  19.609   5.978 -0.2420  0.5921  0.1862
 6865UDC     C175505  15.526  15.222  13.302  1.2163 -0.3131  0.1303
 6865UDC     C275506  15.591  15.125  13.409 -0.3491 -0.8822  0.0514
 6865UDC     C375507  15.677  15.019  13.335  0.4434  1.1545  1.6034
 6865UDC     C475508  15.828  15.008  13.360 -1.1449 -0.0473 -0.5332
 6865UDC     C575509  15.935  14.911  13.304  0.7327  0.3536 -0.7347
 6865UDC     C675510  16.068  14.975  13.354 -0.4654 -0.4618 -0.3577
 6865UDC     C775511  16.183  14.880  13.311  0.4693 -1.4057  0.4467
 6865UDC     C875512  16.316  14.955  13.335 -0.0823 -0.2630  0.1022
 6865UDC     C975513  16.424  14.916  13.230 -0.3714 -1.3755 -1.0110
 6865UDC    C1075514  16.562  14.892  13.291 -0.7927 -0.8732  0.5606
 6865UDC    C1175515  16.603  14.755  13.347 -1.1657  0.0426 -0.4027
 6866UDC     C175516  11.108  10.365  10.579 -0.7908  1.3429 -1.0825
 6866UDC     C275517  10.966  10.394  10.615  0.3501 -0.2608 -0.5012
 6866UDC     C375518  10.895  10.299  10.720  0.4129 -0.1843  1.4880
 6866UDC     C475519  10.795  10.376  10.806  0.4023 -0.0059 -0.3074
 6866UDC     C575520  10.847  10.467  10.921 -0.1512  0.6740  0.3010
 6866UDC     C675521  10.751  10.524  11.021  0.7336  0.8028 -0.0154
 6866UDC     C775522  10.802  10.575  11.152  0.4720 -0.6959 -0.4600
 6866UDC     C875523  10.719  10.698  11.201  0.3030  0.0652 -0.9136
 6866UDC     C975524  10.806  10.777  11.305  1.0308  0.4059  0.1364
 6866UDC    C1075525  10.910  10.882  11.279  0.3022 -1.4683  1.0672
 6866UDC    C1175526  11.042  10.837  11.334 -0.9918 -0.5157  0.0379
 6867UDC     C175527   7.236  13.573  16.256  0.5141 -0.1762 -0.3833
 6867UDC     C275528   7.238  13.536  16.110  0.5437  0.9705  0.1878
 6867UDC     C375529   7.113  13.540  16.023 -0.1677  0.4612  0.3294
 6867UDC     C475530   7.125  13.495  15.876 -0.1672 -0.6309  0.5533
 6867UDC     C575531   7.209  13.584  15.789 -0.0259  1.3341  0.8010
 6867UDC     C675532   7.184  13.590  15.637 -0.7034 -0.5208  0.8900
 6867UDC     C775533   7.304  13.627  15.543  0.0281 -1.1572  1.3112
 6867UDC     C875534   7.401  13.745  15.559  0.5921 -0.2202  0.6480
 6867UDC     C975535   7.529  13.778  15.483 -0.1964  0.2068 -0.3962
 6867UDC    C1075536   7.527  13.805  15.327  0.2766 -0.5873 -0.3034
 6867UDC    C1175537   7.544  13.682  15.236 -0.4952  0.6926 -0.3239
 6868UDC     C175538  12.380   8.739   7.896 -1.0163 -0.9149  0.3821
 6868UDC     C275539  12.417   8.611   7.812  0.8319 -0.4740 -0.5500
 6868UDC     C375540  12.300   8.532   7.740 -0.4918  1.2850  0.4564
 6868UDC     C475541  12.348   8.477   7.604 -0.2848  0.5875  0.7356
 6868UDC     C575542  12.460   8.376   7.605  0.2211  0.2272  0.0109
 6868UDC     C675543  12.492   8.308   7.471 -0.3477 -1.5668 -0.4280
 6868UDC     C775544  12.574   8.393   7.369  0.3693  0.3344  0.9722
 6868UDC     C875545  12.550   8.323   7.234 -0.2758  0.1556 -0.3976
 6868UDC     C975546  12.593   8.378   7.106 -0.5803 -0.0593  0.4141
 6868UDC    C1075547  12.570   8.252   7.010 -0.4331  0.9400  0.0946
 6868UDC    C1175548  12.612   8.282   6.863 -0.8036 -0.1168 -0.1631
 6869UDC     C175549  19.559  13.185  10.931 -0.1922 -0.6488  0.4806
 6869UDC     C275550  19.445  13.261  10.863  0.1890  0.0556 -0.4224
 6869UDC     C375551  19.345  13.348  10.946  0.2934  0.7030  0.2148
 6869UDC     C475552  19.387  13.445  11.057  0.5281  0.5758  0.0768
 6869UDC     C575553  19.419  13.380  11.202  0.2513 -0.4651  0.9273
 6869UDC     C675554  19.451  13.478  11.312  0.5998 -0.1983  0.5886
 6869UDC     C775555  19.494  13.421  11.446  0.2863  0.3277 -0.5202
 6869UDC     C875556  19.376  13.389  11.534  0.8833  0.4832 -0.5617
 6869UDC     C975557  19.299  13.261  11.493  0.4697  0.4083  1.6223
 6869UDC    C1075558  19.166  13.240  11.567  0.1098 -0.1055 -0.1201
 6869UDC    C1175559  19.077  13.120  11.528  0.3968 -0.0072 -0.3975
 6870UDC     C175560   6.659   5.313   4.886 -0.1991  0.5813  0.0953
 6870UDC     C275561   6.692   5.423   4.989 -0.0928  0.0433 -0.2479
 6870UDC     C375562   6.563   5.487   5.048 -1.4994 -1.0672  0.1042
 6870UDC     C475563   6.604   5.542   5.187  0.3140 -0.3848 -0.7766
 6870UDC     C575564   6.483   5.597   5.263  0.4142 -0.7998 -0.2420
 6870UDC     C675565   6.528   5.688   5.375  0.1119  0.8478  1.2836
 6870UDC     C775566   6.428   5.703   5.490 -0.4905  0.4886 -0.0555
 6870UDC     C875567   6.500   5.694   5.629 -0.4429 -0.2531  0.6375
 6870UDC     C975568   6.573   5.825   5.647 -0.0041 -0.5092 -1.1235
 6870UDC    C1075569   6.654   5.840   5.773 -0.1781 -0.7136  1.1404
 6870UDC    C1175570   6.795   5.770   5.770  0.1298 -0.5616 -0.0927
 6871UDC     C175571   6.218  13.853  19.418 -0.0975 -0.2130  0.1335
 6871UDC     C275572   6.081  13.904  19.467 -0.3852 -0.0915  0.2739
 6871UDC     C375573   6.064  14.055  19.494  0.0832 -0.0389 -0.2694
 6871UDC     C475574   5.929  14.112  19.455 -0.8107 -0.0758 -0.4697
 6871UDC     C575575   5.925  14.203  19.337 -0.4413 -0.1818  0.4912
 6871UDC     C675576   5.940  14.145  19.194 -0.8205  0.1894  0.5149
 6871UDC     C775577   5.851  14.228  19.102 -0.6278 -0.2163  0.3910
 6871UDC     C875578   5.927  14.340  19.012  0.5999 -0.7011 -0.5830
 6871UDC     C975579   6.002  14.436  19.107  0.6661 -0.6704  0.4021
 6871UDC    C1075580   6.078  14.526  19.004 -0.1168 -1.0177  0.1214
 6871UDC    C1175581   6.160  14.440  18.909  0.1026  0.0024 -0.3550
 6872UDC     C175582   6.466  12.738   9.896 -0.4947 -0.5688  0.0471
 6872UDC     C275583   6.562  12.837   9.831 -1.3897 -0.1560 -0.6399
 6872UDC     C375584   6.497  12.969   9.799  0.5090  0.3632 -1.2128
 6872UDC     C475585   6.364  12.958   9.724 -0.2849 -0.3530 -0.5518
 6872UDC     C575586   6.278  13.089   9.751 -1.0517  1.0949  0.5611
 6872UDC     C675587   6.337  13.218   9.702 -0.1765  0.1007  0.2553
 6872UDC     C775588   6.254  13.345   9.701  0.3107  1.2448  0.4778
 6872UDC     C875589   6.237  13.412   9.837  0.6510  0.2797 -0.0120
 6872UDC     C975590   6.157  13.540   9.838 -0.6799 -0.3766  0.6873
 6872UDC    C1075591   6.162  13.595   9.978  0.4031  0.2424 -1.1381
 6872UDC    C1175592   6.302  13.589  10.026 -0.5051  0.6496 -0.9661
 6873UDC     C175593  11.079   9.620  11.854  0.0513 -0.3519 -1.2368
 6873UDC     C275594  11.124   9.594  11.997  0.8055 -0.0831  1.1957
 6873UDC     C375595  11.268   9.529  12.012  0.2968 -0.2469 -0.2887
 6873UDC     C475596  11.294   9.481  12.157  0.5200  0.0061  0.2574
 6873UDC     C575597  11.177   9.411  12.225 -0.6977 -1.0278  0.1694
 6873UDC     C675598  11.130   9.275  12.157 -0.6036  0.1197 -0.4292
 6873UDC     C775599  10.993   9.270  12.089 -1.0369  0.6279 -0.0160
 6873UDC     C875600  10.953   9.126  12.051  0.3722  0.8277 -0.7374
 6873UDC     C975601  10.814   9.092  12.010  0.0694 -1.1077 -1.3538
 6873UDC    C1075602  10.812   8.946  11.984 -1.2524  0.1762 -0.2658
 6873UDC    C1175603  10.691   8.876  11.925  0.2187 -0.1602  0.7036
 6874UDC     C175604   3.461   5.300  12.391  0.5604 -0.3939 -0.2479
 6874UDC     C275605   3.561   5.299  12.272 -0.1125 -0.2687 -0.3218
 6874UDC     C375606   3.497   5.220  12.155 -0.4191 -0.5812 -0.0073
 6874UDC     C475607   3.602   5.233  12.036  1.3798  0.8408  0.5935
 6874UDC     C575608   3.667   5.369  12.020  0.2430  0.4401  1.0589
 6874UDC     C675609   3.706   5.416  11.875  0.2389  0.1518  0.3640
 6874UDC     C775610   3.601   5.486  11.786 -0.2566 -0.8539 -0.6039
 6874UDC     C875611   3.489   5.409  11.729 -0.1341  0.7087 -0.1349
 6874UDC     C975612   3.545   5.329  11.607 -1.0877  0.0828 -0.3288
 6874UDC    C1075613   3.452   5.346  11.492 -0.0410  0.2467  0.5754
 6874UDC    C1175614   3.520   5.360  11.353 -0.2155 -0.8458  0.1097
 6875UDC     C175615  10.095  16.737  11.931  0.1119 -0.3857  0.0732
 6875UDC     C275616  10.247  16.729  11.946 -0.3219 -0.8739  1.0339
 6875UDC     C375617  10.337  16.722  11.823 -0.8783 -0.3348  0.5057
 6875UDC     C475618  10.425  16.602  11.791  0.0786  0.1927  0.3581
 6875UDC     C575619  10.458  16.517  11.913  0.6281  0.9790  1.4712
 6875UDC     C675620  10.520  16.373  11.890 -0.0841 -0.6843 -0.1421
 6875UDC     C775621  10.512  16.264  12.006 -0.4802  0.1572 -0.1208
 6875UDC     C875622  10.370  16.233  12.050  1.0858 -0.0287 -0.7315
 6875UDC     C975623  10.366  16.133  12.169 -0.0196  0.5518 -0.3277
 6875UDC    C1075624  10.229  16.085  12.221  0.2770  0.4602 -1.3543
 6875UDC    C1175625  10.263  15.990  12.338  1.1379 -0.1760  0.1371
 6876UDC     C175626   8.487  15.212   6.370  0.3844  0.4258  0.8437
 6876UDC     C275627   8.526  15.310   6.483  0.2377  0.2831  1.2638
 6876UDC     C375628   8.390  15.363   6.537  0.5160  0.0919  0.7325
 6876UDC     C475629   8.334  15.263   6.636 -1.0928  0.1500  0.4618
 6876UDC     C575630   8.187  15.283   6.674 -0.0973  0.3652  0.0042
 6876UDC     C675631   8.127  15.227   6.811  0.2085 -0.4473 -0.2593
 6876UDC     C775632   8.173  15.252   6.956 -0.0724 -0.1228  0.9442
 6876UDC     C875633   8.225  15.391   6.990 -0.7197 -1.0288 -0.8559
 6876UDC     C975634   8.281  15.405   7.131  0.4045 -0.2713 -0.3917
 6876UDC    C1075635   8.429  15.386   7.143  0.9212 -0.0017  0.5984
 6876UDC    C1175636   8.484  15.411   7.283 -0.2458  1.6822  0.3048
 6877UDC     C175637  13.401   3.878   6.632 -0.4408  0.0116 -0.8853
 6877UDC     C275638  13.490   3.870   6.753  0.5427 -0.5899  0.7650
 6877UDC     C375639  13.598   3.769   6.721 -0.5532  0.2327  0.4525
 6877UDC     C475640  13.558   3.620   6.694 -0.5714  0.0297  0.1797
 6877UDC     C575641  13.585   3.534   6.814 -0.0855 -0.0033  0.2086
 6877UDC     C675642  13.609   3.384   6.796  0.2521  0.3155  0.3295
 6877UDC     C775643  13.491   3.300   6.751 -1.1468  0.4627 -0.5304
 6877UDC     C875644  13.451   3.307   6.607  0.8963  0.7552 -0.0226
 6877UDC     C975645  13.432   3.153   6.560  1.4863 -1.3184  0.4203
 6877UDC    C1075646  13.449   3.145   6.396 -0.1489 -0.2144  0.6717
 6877UDC    C1175647  13.594   3.171   6.352  0.3662 -1.5563  0.1223
 6878UDC     C175648   6.502   3.862  11.575  1.1024  0.4203 -0.6683
 6878UDC     C275649   6.525   3.823  11.722 -0.5933  0.2252  0.1641
 6878UDC     C375650   6.485   3.932  11.824  1.0050  0.8301 -0.1842
 6878UDC     C475651   6.438   3.885  11.967  0.2055 -0.4127  0.8968
 6878UDC     C575652   6.360   3.991  12.046 -0.0257 -0.6804  0.1364
 6878UDC     C675653   6.455   4.108  12.107  0.3447  0.0319  0.7355
 6878UDC     C775654   6.373   4.179  12.212  0.9338  0.7382  0.1945
 6878UDC     C875655   6.298   4.299  12.157 -0.1689  0.2943 -0.0257
 6878UDC     C975656   6.214   4.396  12.247 -1.7738 -0.3657 -0.0676
 6878UDC    C1075657   6.108   4.472  12.163  1.5783  0.1252 -0.4134
 6878UDC    C1175658   5.984   4.516  12.247 -0.5992  0.3809  0.2266
 6879UDC     C175659   6.148   0.925  10.397  0.0842 -1.2819  0.4431
 6879UDC     C275660   6.213   0.797  10.355  0.9438 -0.2563  1.4502
 6879UDC     C375661   6.230   0.784  10.198 -0.9801 -0.0709 -1.3369
 6879UDC     C475662   6.343   0.684  10.162 -0.1192 -0.2220  0.2541
 6879UDC     C575663   6.489   0.729  10.197  0.7601  0.6713  0.4801
 6879UDC     C675664   6.600   0.636  10.146 -0.0050  0.8384 -0.5297
 6879UDC     C775665   6.737   0.658  10.212  0.6818 -1.3054 -0.5634
 6879UDC     C875666   6.836   0.603  10.121  0.7250 -0.6086  0.3131
 6879UDC     C975667   6.969   0.572  10.188 -0.7920  0.5523 -0.1188
 6879UDC    C1075668   7.080   0.591  10.078  0.6808  0.3782  0.4042
 6879UDC    C1175669   7.227   0.578  10.119  0.7636 -0.0701 -0.2884
 6880UDC     C175670  18.980   7.460  18.245  0.1226  0.5196  0.2716
 6880UDC     C275671  18.885   7.368  18.323 -0.0897 -0.2711  0.4578
 6880UDC     C375672  18.754   7.441  18.356  1.1451 -0.5319  0.8099
 6880UDC     C475673  18.664   7.373  18.462  0.0781  0.7107 -0.3410
 6880UDC     C575674  18.518   7.378  18.422  0.8351 -0.5040 -0.3412
 6880UDC     C675675  18.429   7.296  18.516 -0.6941 -0.2846  0.3757
 6880UDC     C775676  18.454   7.143  18.537 -0.2017 -0.2181  0.3049
 6880UDC     C875677  18.437   7.037  18.425  0.5524 -1.4722  1.0583
 6880UDC     C975678  18.305   7.026  18.353 -0.4076  0.6441  0.4067
 6880UDC    C1075679  18.184   6.945  18.419 -0.2927 -0.3047  0.0796
 6880UDC    C1175680  18.095   7.004  18.534  0.0100  0.4266  0.0552
 6881UDC     C175681  11.983  14.287   9.603  0.2098 -0.8601  0.2930
 6881UDC     C275682  12.081  14.315   9.724 -0.1427  0.0201 -0.3733
 6881UDC     C375683  11.984  14.295   9.846 -0.7533 -0.3974 -0.3275
 6881UDC     C475684  11.879  14.406   9.867 -0.0935 -0.4411 -0.5822
 6881UDC     C575685  11.875  14.488   9.995  0.4623 -0.2665 -0.3379
 6881UDC     C675686  11.911  14.639   9.985 -0.4197  0.4929 -0.3604
 6881UDC     C775687  11.889  14.745  10.094 -0.2529  0.2523  0.4160
 6881UDC     C875688  11.911  14.893  10.055  0.1389  0.2302  0.7447
 6881UDC     C975689  11.887  14.987  10.171  0.1092 -0.1742  0.8192
 6881UDC    C1075690  11.845  15.118  10.104  0.6049 -1.5361 -0.8927
 6881UDC    C1175691  11.910  15.147   9.970 -0.2327 -1.1804 -1.4695
 6882UDC     C175692   9.714  15.894   5.339  0.0991 -1.4298  0.0082
 6882UDC     C275693   9.806  15.909   5.216 -0.4535  0.0656  0.6564
 6882UDC     C375694   9.814  15.794   5.111  0.3452  0.4722 -0.3468
 6882UDC     C475695   9.709  15.803   4.999 -0.4635 -0.0794 -0.4601
 6882UDC     C575696   9.708  15.708   4.886  0.0757 -0.0138  0.5678
 6882UDC     C675697   9.613  15.589   4.896 -0.5168 -0.7621 -0.6283
 6882UDC     C775698   9.571  15.520   4.770 -0.4360 -0.7006 -0.3255
 6882UDC     C875699   9.674  15.460   4.681 -0.4128  0.1754 -0.1209
 6882UDC     C975700   9.718  15.321   4.739  0.6970  0.1809 -0.2298
 6882UDC    C1075701   9.781  15.239   4.627  0.5534  1.5812 -0.4101
 6882UDC    C1175702   9.899  15.317   4.568 -1.0540  0.8099 -0.7769
 6883UDC     C175703   2.453   0.097   4.961  0.4950  0.0744  0.1318
 6883UDC     C275704   2.386  -0.021   4.899 -1.2464  0.5014 -0.4598
 6883UDC     C375705   2.457  -0.074   4.769  0.1730 -0.2314 -0.4471
 6883UDC     C475706   2.451   0.027   4.657  0.0258 -0.6931  1.1804
 6883UDC     C575707   2.495  -0.041   4.526 -0.3893 -0.7999 -0.2568
 6883UDC     C675708   2.570   0.063   4.444 -0.1827 -1.0450  0.2106
 6883UDC     C775709   2.480   0.083   4.311  0.3588 -0.1670  0.8294
 6883UDC     C875710   2.546   0.179   4.215 -0.5704  0.0888  1.5742
 6883UDC     C975711   2.492   0.232   4.081  1.0519  0.8931  1.4196
 6883UDC    C1075712   2.581   0.311   3.981 -0.4056  1.8472 -0.0581
 6883UDC    C1175713   2.655   0.433   4.044 -0.2608 -0.0125 -0.3715
 6884UDC     C175714   8.747  12.096   6.983  0.4079 -0.7639 -0.2002
 6884UDC     C275715   8.881  12.101   6.902  0.6439 -0.5473 -0.0052
 6884UDC     C375716   9.013  12.153   6.964  0.0872  0.6436 -0.1746
 6884UDC     C475717   9.065  12.076   7.088 -0.1913 -0.5940  0.2969
 6884UDC     C575718   9.190  12.153   7.141  0.9574 -0.1874  1.2037
 6884UDC     C675719   9.240  12.050   7.246  0.1040  1.4411  0.0987
 6884UDC     C775720   9.387  12.077   7.289  0.2498 -0.1063  0.2756
 6884UDC     C875721   9.468  11.975   7.208 -1.4278 -0.3551 -0.3048
 6884UDC     C975722   9.496  11.840   7.277 -0.2470  0.5265  0.8898
 6884UDC    C1075723   9.605  11.751   7.204  0.2316 -0.2496  0.6519
 6884UDC    C1175724   9.608  11.734   7.049  0.0450  0.4611  0.3274
 6885UDC     C175725  10.217   8.801   1.614 -0.6348  0.0315  0.8433
 6885UDC     C275726  10.325   8.738   1.523 -0.5825 -1.6465 -1.4547
 6885UDC     C375727  10.310   8.582   1.496 -1.3815 -0.8233 -0.7611
 6885UDC     C475728  10.318   8.560   1.347 -0.2563 -0.0358 -0.1048
 6885UDC     C575729  10.295   8.411   1.301  0.1078 -0.2773 -0.2270
 6885UDC     C675730  10.288   8.391   1.144 -0.5715 -0.5135  0.1476
 6885UDC     C775731  10.149   8.367   1.078 -0.6048 -1.0945 -0.1326
 6885UDC     C875732  10.105   8.243   0.992 -0.9572 -0.2827  0.9167
 6885UDC     C975733   9.961   8.262   0.936 -0.2649  0.3477  0.4497
 6885UDC    C1075734   9.849   8.164   0.981  0.2812 -0.0512  1.5786
 6885UDC    C1175735   9.724   8.142   0.889  1.3628 -1.2673 -0.2936
 6886UDC     C175736  11.159   2.437  12.582  0.0720  0.3359  0.6396
 6886UDC     C275737  11.220   2.528  12.480  0.0683  0.3837  0.8334
 6886UDC     C375738  11.109   2.561  12.371 -0.3431  0.0420  0.1936
 6886UDC     C475739  11.146   2.657  12.259 -0.4302  0.1838  0.8594
 6886UDC     C575740  11.043   2.639  12.144 -1.0444  0.5856 -0.3425
 6886UDC     C675741  10.899   2.632  12.190  0.5730 -0.2478  1.0540
 6886UDC     C775742  10.794   2.615  12.086 -0.2697 -0.0005  0.0956
 6886UDC     C875743  10.755   2.479  12.040  0.2911  0.0852  0.2637
 6886UDC     C975744  10.688   2.384  12.138 -0.1221 -1.0636 -0.2101
 6886UDC    C1075745  10.544   2.402  12.186 -0.3213 -0.4791  0.0532
 6886UDC    C1175746  10.485   2.290  12.275  0.3513  0.2315  0.7508
 6887UDC     C175747   8.250  16.895  12.465  0.0818  0.1594  0.5408
 6887UDC     C275748   8.153  16.980  12.548 -1.1197 -1.4641  1.1100
 6887UDC     C375749   8.109  16.907  12.675  0.1078  0.1981 -1.0937
 6887UDC     C475750   8.234  16.857  12.755  0.1170 -0.6868 -0.2427
 6887UDC     C575751   8.211  16.811  12.905  0.3692  1.0996  0.8570
 6887UDC     C675752   8.341  16.815  12.987  1.4566 -0.8177 -0.0968
 6887UDC     C775753   8.449  16.739  12.915 -0.4743 -0.1822 -0.1686
 6887UDC     C875754   8.558  16.683  13.008 -0.2428  0.0596 -0.0447
 6887UDC     C975755   8.642  16.809  13.051 -0.1199  0.5530  0.1105
 6887UDC    C1075756   8.800  16.795  13.013 -0.9397  0.5857  0.7076
 6887UDC    C1175757   8.900  16.893  13.062  0.8952  0.0080  0.5764
 6888UDC     C175758   1.985  17.309   2.428 -0.6277 -0.2650 -0.7387
 6888UDC     C275759   2.049  17.446   2.437 -0.3161  0.5818  0.4059
 6888UDC     C375760   1.959  17.553   2.495 -0.3729  0.8537  0.9921
 6888UDC     C475761   1.829  17.609   2.425  0.1081 -1.3068 -0.5301
 6888UDC     C575762   1.836  17.711   2.314 -0.1436  0.3534 -1.4271
 6888UDC     C675763   1.884  17.844   2.366 -0.7605  0.6379 -0.6310
 6888UDC     C775764   1.904  17.930   2.237  0.5110  0.5489 -0.7715
 6888UDC     C875765   1.931  18.080   2.268  1.2500 -0.3593 -0.3401
 6888UDC     C975766   1.823  18.148   2.365  0.1705  0.8325  0.2895
 6888UDC    C1075767   1.898  18.273   2.404 -1.2000  0.2260  0.0926
 6888UDC    C1175768   2.026  18.235   2.482  0.3203  1.4828 -0.2729
 6889UDC     C175769  10.467   6.209  16.845 -0.5640  0.1032 -0.6584
 6889UDC     C275770  10.544   6.330  16.787 -0.8109 -0.0741 -0.0586
 6889UDC     C375771  10.661   6.350  16.887 -0.4866 -1.1435 -0.3811
 6889UDC     C475772  10.747   6.229  16.921  0.3055 -0.2497 -0.4895
 6889UDC     C575773  10.848   6.278  17.036 -0.1769 -0.1389  0.9099
 6889UDC     C675774  10.948   6.395  17.020  1.3373 -0.0463 -0.3894
 6889UDC     C775775  11.029   6.445  17.143 -0.7094  0.0486  0.6107
 6889UDC     C875776  11.177   6.419  17.142 -0.5646 -0.6308 -0.8145
 6889UDC     C975777  11.246   6.468  17.276  0.4227  0.0828  0.5702
 6889UDC    C1075778  11.323   6.605  17.279 -0.2040  0.5510 -0.5774
 6889UDC    C1175779  11.439   6.579  17.383  1.0661  0.9525  0.5287
 6890UDC     C175780   2.276  12.263   1.925 -0.5060 -0.5706  0.1539
 6890UDC     C275781   2.364  12.348   1.833 -0.6423  0.6183  0.4590
 6890UDC     C375782   2.456  12.455   1.892  0.0734  1.0501 -0.1139
 6890UDC     C475783   2.407  12.531   2.011 -0.6075 -0.3107 -0.9237
 6890UDC     C575784   2.499  12.643   2.060  0.7535  0.2852  0.5223
 6890UDC     C675785   2.629  12.587   2.118 -0.1381 -1.2088  0.5239
 6890UDC     C775786   2.614  12.464   2.207  0.1303 -0.1564  0.6577
 6890UDC     C875787   2.744  12.386   2.245  0.0907 -0.3152 -0.0229
 6890UDC     C975788   2.811  12.308   2.134 -0.2859  0.7229  0.5214
 6890UDC    C1075789   2.951  12.260   2.183 -1.2157  0.0121  0.0727
 6890UDC    C1175790   3.030  12.212   2.054 -0.3570 -0.2473 -0.8429
 6891UDC     C175791  12.491  14.543  14.069 -0.7893 -1.7821  0.4330
 6891UDC     C275792  12.407  14.414  14.074  0.2819 -0.3668 -0.5191
 6891UDC     C375793  12.396  14.352  14.217  0.1354  0.7692  0.2064
 6891UDC     C475794  12.271  14.270  14.246  0.2778 -0.0025 -0.3044
 6891UDC     C575795  12.132  14.330  14.203  0.0129  0.5443  0.6129
 6891UDC     C675796  12.026  14.279  14.300 -1.1708  0.3901 -0.6614
 6891UDC     C775797  11.986  14.370  14.418  0.8536  0.1275 -0.0703
 6891UDC     C875798  11.890  14.302  14.519 -0.8557 -0.2354 -0.3304
 6891UDC     C975799  11.968  14.249  14.641  1.9114  0.9410 -0.1805
 6891UDC    C1075800  11.885  14.164  14.743  0.6688 -0.6607  0.3750
 6891UDC    C1175801  11.772  14.242  14.823 -0.2112  0.3058 -0.4086
 6892UDC     C175802   3.097  10.312   5.494 -0.3988 -0.2527  0.8548
 6892UDC     C275803   3.032  10.334   5.634 -0.1685 -0.9056  0.8398
 6892UDC     C375804   2.903  10.261   5.605  0.1773  0.3026 -0.1994
 6892UDC     C475805   2.836  10.201   5.732 -0.1866 -0.5168  0.0765
 6892UDC     C575806   2.723  10.100   5.677  0.3269  0.2339 -0.3205
 6892UDC     C675807   2.625  10.047   5.786  0.3431  1.4162  0.3857
 6892UDC     C775808   2.490   9.989   5.725  0.3016 -0.2794  0.4172
 6892UDC     C875809   2.395  10.084   5.651 -0.5353 -0.8417 -0.7840
 6892UDC     C975810   2.343  10.188   5.753  0.4854 -0.1733  0.6644
 6892UDC    C1075811   2.220  10.272   5.718 -0.4248 -0.7433  0.2984
 6892UDC    C1175812   2.226  10.361   5.591  0.2469  0.0549  0.0543
 6893UDC     C175813  15.260  18.510  14.024  0.3623 -0.0797  0.5275
 6893UDC     C275814  15.161  18.526  13.902 -0.9802 -0.5169  0.4377
 6893UDC     C375815  15.238  18.530  13.758  1.3719  0.0772 -0.8420
 6893UDC     C475816  15.142  18.542  13.635 -0.6812 -0.4025 -0.9187
 6893UDC     C575817  15.113  18.682  13.573 -0.9095 -0.6283 -0.3365
 6893UDC     C675818  15.250  18.756  13.566  0.1059  0.0661 -0.1691
 6893UDC     C775819  15.206  18.900  13.577 -0.1178  0.3588  0.5880
 6893UDC     C875820  15.305  18.987  13.507 -0.4098 -0.0421 -0.1118
 6893UDC     C975821  15.270  19.139  13.498  0.0972 -0.3664 -0.6996
 6893UDC    C1075822  15.326  19.217  13.619  0.3472  0.2437  0.4449
 6893UDC    C1175823  15.283  19.364  13.615 -0.5463  0.4666  0.0068
 6894UDC     C175824   2.200   2.588   5.869 -0.1073 -0.1649 -0.1872
 6894UDC     C275825   2.107   2.578   5.748  0.1881 -0.0446  0.2310
 6894UDC     C375826   2.190   2.525   5.624  0.4355  0.7145 -0.3657
 6894UDC     C475827   2.288   2.637   5.575  0.8433  0.1100 -0.3900
 6894UDC     C575828   2.370   2.597   5.448 -0.1516 -0.6592 -1.7146
 6894UDC     C675829   2.474   2.490   5.496  0.1498 -0.0544  0.7633
 6894UDC     C775830   2.567   2.451   5.379  0.1023  1.2916 -0.4954
 6894UDC     C875831   2.500   2.505   5.258 -0.4425  0.2017  0.7185
 6894UDC     C975832   2.594   2.533   5.147 -1.1332 -0.0815  0.8530
 6894UDC    C1075833   2.558   2.454   5.017 -0.0825 -0.5216  0.5979
 6894UDC    C1175834   2.440   2.508   4.940 -0.3424  0.5417  0.3310
 6895UDC     C175835  17.125   2.236   3.095 -0.3154 -0.2600  0.1247
 6895UDC     C275836  17.238   2.160   3.166  0.2299  0.0838 -0.1245
 6895UDC     C375837  17.190   2.149   3.306 -0.3876 -0.3404 -0.4074
 6895UDC     C475838  17.315   2.142   3.399  0.2078  0.0554  0.1844
 6895UDC     C575839  17.321   2.189   3.546 -0.7360 -0.1708  0.1082
 6895UDC     C675840  17.324   2.337   3.564  0.2212 -0.3473  0.7238
 6895UDC     C775841  17.328   2.378   3.708  0.0304  0.2815  0.3561
 6895UDC     C875842  17.246   2.284   3.797 -1.1777 -0.3144 -0.9336
 6895UDC     C975843  17.246   2.350   3.932 -0.5301 -0.0055  0.4164
 6895UDC    C1075844  17.159   2.281   4.039 -0.6747 -0.1673 -1.0597
 6895UDC    C1175845  17.185   2.346   4.175  0.1579 -0.2025 -0.8380
 6896UDC     C175846  12.784   6.288   6.212  0.2106  0.7643 -1.1587
 6896UDC     C275847  12.833   6.334   6.345  0.4310  1.1672 -1.3915
 6896UDC     C375848  12.923   6.236   6.421  0.0789 -0.8104  0.3962
 6896UDC     C475849  13.006   6.187   6.310 -1.2119 -0.2091  0.6284
 6896UDC     C575850  13.084   6.077   6.383 -0.5329  0.8394  0.2969
 6896UDC     C675851  13.182   6.005   6.290 -0.1192 -0.5312  0.0760
 6896UDC     C775852  13.292   6.088   6.216  0.1676  0.4912  0.2726
 6896UDC     C875853  13.357   5.994   6.113 -0.1949  0.4002 -0.1404
 6896UDC     C975854  13.293   5.980   5.983  0.4789  0.8052  0.0753
 6896UDC    C1075855  13.362   5.875   5.892 -0.4070 -1.2739 -0.2708
 6896UDC    C1175856  13.310   5.891   5.746  0.1949 -0.3643 -0.1952
 6897UDC     C175857  14.330   5.388   6.611 -1.1271 -0.3474 -0.7325
 6897UDC     C275858  14.455   5.352   6.698  0.0336 -0.8667 -0.2662
 6897UDC     C375859  14.554   5.253   6.638 -0.0628 -0.2703  0.3113
 6897UDC     C475860  14.636   5.162   6.720  0.0244  0.7771 -0.9639
 6897UDC     C575861  14.702   5.052   6.632  0.3274  0.0114  0.7696
 6897UDC     C675862  14.843   5.018   6.683 -1.0433 -0.3025 -0.3002
 6897UDC     C775863  14.926   5.130   6.743  0.6942 -0.2678 -0.1506
 6897UDC     C875864  15.040   5.081   6.835 -0.0633 -0.2604  0.4470
 6897UDC     C975865  15.138   5.199   6.863  0.0817 -0.4168  0.1755
 6897UDC    C1075866  15.079   5.346   6.843 -1.7694  0.6966 -0.7102
 6897UDC    C1175867  15.172   5.463   6.828 -0.2260  0.0915 -0.3976
 6898UDC     C175868  17.347  11.401   4.952  0.5045 -0.1564  0.2583
 6898UDC     C275869  17.401  11.261   4.932 -0.5470 -0.2101  0.3501
 6898UDC     C375870  17.420  11.186   5.066  0.4555  0.5507  0.9296
 6898UDC     C475871  17.565  11.193   5.117 -1.1483 -0.2225 -0.1538
 6898UDC     C575872  17.621  11.323   5.190 -0.0561  0.1306 -0.4180
 6898UDC     C675873  17.625  11.331   5.345  0.0908  0.4054  0.5126
 6898UDC     C775874  17.724  11.430   5.403 -0.2053 -0.4084  0.6399
 6898UDC     C875875  17.870  11.410   5.352  0.3867  0.3447  0.6851
 6898UDC     C975876  17.946  11.279   5.377  0.5857  1.4410 -0.7740
 6898UDC    C1075877  18.092  11.258   5.380  1.3987  0.9729  0.1463
 6898UDC    C1175878  18.174  11.195   5.496 -0.3541 -0.3910  0.4494
 6899UDC     C175879  11.708  11.936   5.664 -0.1155 -0.4578  0.4917
 6899UDC     C275880  11.675  11.797   5.725  0.0465 -0.3778  0.3749
 6899UDC     C375881  11.802  11.717   5.769  0.3513  0.3213  1.4727
 6899UDC     C475882  11.765  11.579   5.816  0.3471 -0.9642 -0.7776
 6899UDC     C575883  11.875  11.475   5.820  0.2834 -0.4151  1.3057
 6899UDC     C675884  11.911  11.467   5.669 -1.1568  0.0215  0.3886
 6899UDC     C775885  12.011  11.362   5.615  0.1727  0.0972 -0.2304
 6899UDC     C875886  12.158  11.411   5.611  1.0187 -0.3217  0.3530
 6899UDC     C975887  12.223  11.469   5.731  0.1255  0.3991 -0.1016
 6899UDC    C1075888  12.374  11.482   5.724 -0.0350  0.0531  1.3804
 6899UDC    C1175889  12.438  11.575   5.829  0.6100 -0.3969 -0.0545
 6900UDC     C175890  15.913   8.067   5.479 -0.1707  0.0241  0.3038
 6900UDC     C275891  15.872   8.212   5.506 -0.5633 -1.4609 -0.1352
 6900UDC     C375892  15.812   8.283   5.378 -0.8393  0.6098 -0.4364
 6900UDC     C475893  15.769   8.428   5.395 -0.5850 -0.2020  0.5776
 6900UDC     C575894  15.673   8.459   5.507 -0.2214 -0.0264  0.3682
 6900UDC     C675895  15.604   8.599   5.532 -0.5214 -0.2952  0.7803
 6900UDC     C775896  15.519   8.658   5.415 -0.7444 -0.0538 -1.1338
 6900UDC     C875897  15.474   8.808   5.419 -0.1884  0.4090  0.2362
 6900UDC     C975898  15.385   8.866   5.299  0.5441  1.5458 -0.3187
 6900UDC    C1075899  15.389   9.017   5.311  0.6612 -1.6350  0.0506
 6900UDC    C1175900  15.274   9.099   5.377 -0.1514  0.6476 -0.0584
 6901UDC     C175901   4.123  15.677   1.913  0.6084 -0.6017  0.0537
 6901UDC     C275902   4.082  15.807   1.993 -0.0728 -1.0634  0.0958
 6901UDC     C375903   4.059  15.923   1.892 -0.0668  0.5044  0.1518
 6901UDC     C475904   4.191  15.967   1.822 -0.6386  0.3195 -0.2487
 6901UDC     C575905   4.189  16.078   1.720  0.5117 -0.6658  0.4904
 6901UDC     C675906   4.322  16.126   1.657  0.1319 -0.0770  0.3202
 6901UDC     C775907   4.306  16.243   1.548 -0.5657 -0.9863  0.5366
 6901UDC     C875908   4.241  16.368   1.607 -0.4790 -0.5962 -1.3252
 6901UDC     C975909   4.222  16.492   1.523  0.1205  0.0556  0.1123
 6901UDC    C1075910   4.147  16.626   1.563 -0.4456  0.3422  0.6245
 6901UDC    C1175911   4.001  16.595   1.542  0.8873  0.4516 -0.5404
 6902UDC     C175912  14.141  11.284  15.634 -1.1406  0.3578 -1.0363
 6902UDC     C275913  14.174  11.226  15.496  0.4807  1.1993  0.5697
 6902UDC     C375914  14.058  11.185  15.405 -0.0260 -0.1043 -0.1007
 6902UDC     C475915  13.937  11.120  15.460 -0.3647  0.7026 -0.0210
 6902UDC     C575916  13.951  10.965  15.456  0.5367 -0.2730 -0.0420
 6902UDC     C675917  13.950  10.893  15.317  0.7537  0.1268 -0.4061
 6902UDC     C775918  13.828  10.918  15.225  1.1945  0.2568 -0.2950
 6902UDC     C875919  13.881  10.868  15.088  0.3268 -0.1262 -0.3057
 6902UDC     C975920  14.029  10.902  15.058 -0.1391  0.1249 -0.4586
 6902UDC    C1075921  14.066  11.054  15.059 -1.0313 -0.1528 -0.3489
 6902UDC    C1175922  14.209  11.084  15.001 -0.3705 -0.1255 -0.5456
 6903UDC     C175923  17.091  18.035  15.854 -0.0340  0.1381 -0.0116
 6903UDC     C275924  17.139  18.093  15.712  0.2154  0.3956 -0.4325
 6903UDC     C375925  17.237  17.990  15.663 -0.3606 -0.2087  0.0756
 6903UDC     C475926  17.161  17.888  15.579  0.3016  0.0313  0.2229
 6903UDC     C575927  17.266  17.802  15.499  0.1706  0.0592  0.2574
 6903UDC     C675928  17.210  17.748  15.373 -0.3512  1.3602 -0.7131
 6903UDC     C775929  17.311  17.651  15.301 -1.6571  0.1277 -0.4504
 6903UDC     C875930  17.395  17.731  15.199 -0.8748 -0.0185  0.8214
 6903UDC     C975931  17.518  17.645  15.153  0.4439  0.2305  0.2363
 6903UDC    C1075932  17.537  17.703  15.009  1.1804 -0.9065 -1.4919
 6903UDC    C1175933  17.609  17.834  14.993 -0.2105 -0.1304  0.1788
 6904UDC     C175934  13.909  11.220  18.070  0.6096 -0.5086 -0.5852
 6904UDC     C275935  13.889  11.212  17.918  0.2508 -0.2869  0.9091
 6904UDC     C375936  13.747  11.219  17.851  1.7110 -0.0427 -1.4175
 6904UDC     C475937  13.756  11.161  17.712  0.5149 -0.2642  0.0178
 6904UDC     C575938  13.862  11.215  17.612  0.2373  0.2998  0.0871
 6904UDC     C675939  13.839  11.365  17.595  0.4352  0.4522 -0.2185
 6904UDC     C775940  13.961  11.441  17.548 -0.4903  0.3956 -0.4763
 6904UDC     C875941  13.924  11.590  17.507 -1.0078 -0.1350 -1.0370
 6904UDC     C975942  14.010  11.659  17.400  0.9801  0.4546  0.1349
 6904UDC    C1075943  14.008  11.816  17.424 -0.4694 -0.0405 -1.8292
 6904UDC    C1175944  14.148  11.858  17.473 -0.2004 -0.2256 -0.0010
 6905UDC     C175945  12.819  17.402  18.905  0.3429 -0.6432  0.2197
 6905UDC     C275946  12.722  17.479  18.814 -0.0010  0.8055  0.2285
 6905UDC     C375947  12.662  17.598  18.888  0.1276  0.0538  0.1307
 6905UDC     C475948  12.586  17.569  19.019 -1.0594 -0.1982  0.5022
 6905UDC     C575949  12.437  17.532  18.991  0.0260 -1.0907 -0.0114
 6905UDC     C675950  12.352  17.635  18.907  0.0171  0.4664  0.1517
 6905UDC     C775951  12.287  17.560  18.793  0.1384 -0.3352 -0.4700
 6905UDC     C875952  12.173  17.473  18.840  0.0592 -0.2387  1.1835
 6905UDC     C975953  12.128  17.361  18.754  0.2335  0.1420 -0.7789
 6905UDC    C1075954  12.008  17.275  18.795  0.6578 -0.2272  0.0503
 6905UDC    C1175955  11.896  17.372  18.847 -0.7840  0.5809  1.2093
 6906UDC     C175956   3.717  12.376   0.350 -0.1132 -0.3038 -0.3771
 6906UDC     C275957   3.850  12.430   0.401 -0.3820 -0.2326  0.5599
 6906UDC     C375958   3.927  12.470   0.273  0.5104  0.7057 -0.0999
 6906UDC     C475959   4.064  12.523   0.306  0.4139 -0.6119 -1.0749
 6906UDC     C575960   4.151  12.429   0.386 -0.1235  0.0272 -0.9053
 6906UDC     C675961   4.303  12.425   0.384  0.9347 -0.6389 -0.2968
 6906UDC     C775962   4.368  12.526   0.296 -1.3817 -0.3326  0.1273
 6906UDC     C875963   4.512  12.493   0.238  0.2950  0.1015 -0.5286
 6906UDC     C975964   4.533  12.583   0.120  0.7155 -0.4607  1.5991
 6906UDC    C1075965   4.433  12.532   0.013 -0.1921  0.2252  0.3344
 6906UDC    C1175966   4.379  12.622  -0.096 -1.1539 -0.0069 -0.3241
 6907UDC     C175967   3.456  16.268   9.686 -0.1577  0.1053  0.6573
 6907UDC     C275968   3.588  16.188   9.669  0.2556  0.0982 -0.8704
 6907UDC     C375969   3.698  16.289   9.637 -0.7607  0.1425  1.0760
 6907UDC     C475970   3.836  16.244   9.586  0.3004 -0.1037  0.0242
 6907UDC     C575971   3.922  16.157   9.671 -0.7352  0.2809  0.2940
 6907UDC     C675972   3.959  16.205   9.810 -1.1488 -0.1946  0.5684
 6907UDC     C775973   4.066  16.109   9.865  0.8125 -0.2472 -0.2519
 6907UDC     C875974   4.027  15.979   9.934  0.1080 -0.4142  1.3111
 6907UDC     C975975   3.970  15.986  10.070 -0.6833 -0.2238 -0.1022
 6907UDC    C1075976   3.914  15.851  10.116 -0.8096 -0.3571  0.2089
 6907UDC    C1175977   3.818  15.871  10.234 -0.2459 -1.1205  0.3180
 6908UDC     C175978  17.294   7.924  12.458 -0.1285  0.3416  0.2784
 6908UDC     C275979  17.242   7.827  12.353 -0.4254  0.2480  0.5928
 6908UDC     C375980  17.320   7.828  12.225  0.0372 -0.2484  0.7908
 6908UDC     C475981  17.335   7.970  12.170  0.4859  0.4323 -0.1503
 6908UDC     C575982  17.352   7.956  12.016  0.8918 -0.4062  0.2132
 6908UDC     C675983  17.327   8.089  11.932  0.5404  0.5550 -0.8865
 6908UDC     C775984  17.415   8.194  12.010 -0.3565 -0.0855  0.3991
 6908UDC     C875985  17.515   8.281  11.929  0.9627  0.4219 -0.2584
 6908UDC     C975986  17.615   8.355  12.017  0.4390  0.7188  0.3039
 6908UDC    C1075987  17.710   8.459  11.958 -0.4690 -1.0088 -0.0729
 6908UDC    C1175988  17.651   8.534  11.837 -0.7899 -0.5627  0.1214
 6909UDC     C175989  19.794   5.933  12.854 -0.8049  0.3179 -0.5777
 6909UDC     C275990  19.790   5.804  12.944 -0.4727  0.3239 -0.1287
 6909UDC     C375991  19.916   5.715  12.932  0.1097 -0.2137 -0.1417
 6909UDC     C475992  19.959   5.694  12.788 -1.3666  0.4593  1.4236
 6909UDC     C575993  20.020   5.560  12.747 -0.1711  0.8835  0.2494
 6909UDC     C675994  20.045   5.537  12.591 -1.2937 -0.7261 -0.9680
 6909UDC     C775995  19.950   5.627  12.521  0.4691 -0.0231 -0.2844
 6909UDC     C875996  19.947   5.620  12.367  0.0241 -0.2599 -0.0318
 6909UDC     C975997  20.074   5.655  12.286  0.0446 -1.4398 -0.2490
 6909UDC    C1075998  20.084   5.788  12.197  0.1488  0.3790 -1.5567
 6909UDC    C1175999  20.034   5.780  12.046 -0.8094  1.1746  0.0178
 6910UDC     C176000   4.801  14.035  18.183  0.0050  0.7454 -0.3431
 6910UDC     C276001   4.835  14.078  18.042  0.7932  1.2223  0.0326
 6910UDC     C376002   4.756  13.985  17.946 -0.4449 -0.1702  0.1396
 6910UDC     C476003   4.817  13.844  17.944 -1.0043 -0.7415  0.4306
 6910UDC     C576004   4.746  13.740  17.862 -0.7001  1.2854  0.7838
 6910UDC     C676005   4.798  13.595  17.847  0.5122 -0.0979  0.8025
 6910UDC     C776006   4.777  13.501  17.728  0.8947  1.1209 -0.1992
 6910UDC     C876007   4.878  13.404  17.669 -0.1032  0.4386  0.7868
 6910UDC     C976008   4.830  13.277  17.594  0.3647 -0.3466  0.2797
 6910UDC    C1076009   4.723  13.216  17.682 -0.2395  0.2098 -0.1203
 6910UDC    C1176010   4.642  13.114  17.603  0.5382 -0.1306 -0.7221
 6911UDC     C176011  13.996  10.874   3.827  0.3002 -0.5389  0.3338
 6911UDC     C276012  13.902  10.757   3.781  0.7198 -0.5441 -0.7954
 6911UDC     C376013  13.840  10.799   3.648  0.1162 -0.0327 -0.3509
 6911UDC     C476014  13.715  10.887   3.668 -0.9734  0.4365 -0.6428
 6911UDC     C576015  13.593  10.816   3.695 -0.1679  0.4714 -0.1126
 6911UDC     C676016  13.593  10.706   3.596 -0.0888 -1.6876  1.0074
 6911UDC     C776017  13.474  10.615   3.592 -0.1846 -0.6986 -0.4232
 6911UDC     C876018  13.368  10.666   3.494  0.3148  0.1497  0.1148
 6911UDC     C976019  13.407  10.689   3.347 -0.2902  0.7265 -1.2098
 6911UDC    C1076020  13.335  10.808   3.267 -0.1897 -0.2418 -0.2564
 6911UDC    C1176021  13.416  10.845   3.141 -0.2880  0.6323  0.8621
 6912UDC     C176022  14.674  15.959  14.953 -0.9713  0.4852  0.5938
 6912UDC     C276023  14.773  15.869  14.878 -0.0387  0.5119  1.1000
 6912UDC     C376024  14.713  15.761  14.795 -0.1542  0.4532  0.1266
 6912UDC     C476025  14.817  15.663  14.727 -0.4348 -1.1088 -0.0527
 6912UDC     C576026  14.760  15.559  14.627  0.1640 -0.1056  0.4577
 6912UDC     C676027  14.861  15.493  14.529 -0.0824 -0.3610  0.6563
 6912UDC     C776028  14.880  15.557  14.389 -0.4315 -1.6420 -1.5134
 6912UDC     C876029  15.026  15.563  14.352 -0.1130 -0.6546 -0.2968
 6912UDC     C976030  15.096  15.699  14.359  0.8423  0.7742  0.1493
 6912UDC    C1076031  15.251  15.685  14.320  1.5161 -0.2139  0.3938
 6912UDC    C1176032  15.373  15.610  14.380  0.1652  0.2502  0.4576
 6913UDC     C176033  16.770  14.058  19.880 -0.5004  1.1393  0.1795
 6913UDC     C276034  16.717  13.948  19.969  0.7821  0.2353  0.6541
 6913UDC     C376035  16.581  13.893  19.936  0.6680 -0.6556 -0.6655
 6913UDC     C476036  16.495  13.856  20.059  1.0250  0.7025  0.7117
 6913UDC     C576037  16.373  13.761  20.020  0.0427  0.5753  0.3440
 6913UDC     C676038  16.311  13.684  20.145 -0.1213 -0.2702 -0.2023
 6913UDC     C776039  16.185  13.606  20.115 -0.1880  0.5628  1.3707
 6913UDC     C876040  16.116  13.537  20.236  0.3814 -0.0928  0.0144
 6913UDC     C976041  16.122  13.384  20.227 -0.8447  1.0966 -0.1128
 6913UDC    C1076042  16.093  13.310  20.354 -0.2459 -0.7451 -0.5269
 6913UDC    C1176043  16.036  13.170  20.347  0.0646  1.0827 -0.1538
 6914UDC     C176044   9.643  19.777   5.489 -0.1978 -0.0085 -0.5707
 6914UDC     C276045   9.783  19.700   5.505  0.5739 -0.9895  1.7585
 6914UDC     C376046   9.841  19.638   5.378 -0.5448 -0.0964 -0.9958
 6914UDC     C476047   9.980  19.580   5.423 -1.2889  0.3504 -0.0924
 6914UDC     C576048   9.969  19.442   5.493 -0.2201  0.4772  0.2745
 6914UDC     C676049   9.980  19.316   5.402  1.2381 -0.5052 -0.4899
 6914UDC     C776050   9.842  19.265   5.386 -0.4309  0.6820  0.0983
 6914UDC     C876051   9.834  19.169   5.265 -0.6943  1.5018  0.6174
 6914UDC     C976052   9.706  19.082   5.255 -0.0694  0.0236 -0.5902
 6914UDC    C1076053   9.586  19.155   5.328  2.0322  1.3577  1.1509
 6914UDC    C1176054   9.460  19.183   5.239  0.0057  0.0320  0.1855
 6915UDC     C176055  13.477   9.949   1.738 -0.5193  0.8169 -0.2526
 6915UDC     C276056  13.559  10.033   1.841  0.3122  1.5047 -0.8928
 6915UDC     C376057  13.478  10.098   1.948  1.1316 -0.2544 -0.7633
 6915UDC     C476058  13.576  10.180   2.035 -0.1042 -0.7153  0.0847
 6915UDC     C576059  13.484  10.271   2.124  0.1411  0.9346  0.5683
 6915UDC     C676060  13.557  10.368   2.218  1.3618  0.1168  0.1073
 6915UDC     C776061  13.471  10.484   2.266 -0.7197 -1.1166  0.8142
 6915UDC     C876062  13.329  10.449   2.283  0.7478  0.3128 -0.2495
 6915UDC     C976063  13.280  10.359   2.404 -1.2489  0.2767 -0.6474
 6915UDC    C1076064  13.144  10.291   2.403  0.2769 -0.3417  0.0301
 6915UDC    C1176065  13.045  10.345   2.508  0.4754 -0.7709  0.8351
 6916UDC     C176066  17.824  19.428   0.160  0.5599 -0.2561 -0.7916
 6916UDC     C276067  17.845  19.529   0.045  0.6931 -0.3714  0.3543
 6916UDC     C376068  17.961  19.501  -0.055  0.6529  0.6957 -0.1713
 6916UDC     C476069  17.942  19.379  -0.148 -0.5669 -1.0814 -0.3160
 6916UDC     C576070  18.061  19.368  -0.240 -0.9761  0.9697  0.4399
 6916UDC     C676071  18.202  19.335  -0.188 -1.5564 -0.5530 -0.2554
 6916UDC     C776072  18.310  19.375  -0.284 -0.6754 -1.9879  0.1537
 6916UDC     C876073  18.428  19.456  -0.217  0.5881  0.0344 -0.4907
 6916UDC     C976074  18.535  19.362  -0.168  0.4872 -0.1709  0.7184
 6916UDC    C1076075  18.652  19.423  -0.091  0.1255  0.0690 -0.6587
 6916UDC    C1176076  18.755  19.322  -0.051 -1.6451  1.1288  0.6557
 6917UDC     C176077  19.434  17.771   6.727 -0.1093 -0.4279  0.2573
 6917UDC     C276078  19.510  17.891   6.679  0.1042 -1.0238  0.8894
 6917UDC     C376079  19.647  17.904   6.751  0.1682  0.3904 -0.0196
 6917UDC     C476080  19.635  17.974   6.887  0.6740  0.9245 -1.1351
 6917UDC     C576081  19.767  17.934   6.963  0.7248 -0.3701  0.8589
 6917UDC     C676082  19.832  18.040   7.055  0.0710 -0.9240 -0.5982
 6917UDC     C776083  19.977  18.037   7.080 -0.8113 -0.0915  0.6496
 6917UDC     C876084  20.033  17.939   7.188  1.0350  0.7860  0.1516
 6917UDC     C976085  20.185  17.901   7.168 -0.5148  0.4224  0.5527
 6917UDC    C1076086  20.281  17.995   7.085  0.7865 -0.2225  0.3122
 6917UDC    C1176087  20.374  18.098   7.169  0.3674  0.1417 -0.3947
 6918UDC     C176088   1.901  12.472  18.965  0.2200  0.0291 -0.6553
 6918UDC     C276089   1.811  12.461  18.841 -0.0174  0.0813  0.4281
 6918UDC     C376090   1.895  12.452  18.715 -0.4501  0.1040  0.1090
 6918UDC     C476091   1.918  12.313  18.647 -0.4959 -0.7233 -0.1347
 6918UDC     C576092   2.012  12.213  18.708  0.4205  0.3138 -1.4126
 6918UDC     C676093   2.074  12.113  18.612 -1.3918  0.9238 -0.1238
 6918UDC     C776094   2.030  11.967  18.619  0.1255  0.1272 -0.0160
 6918UDC     C876095   2.113  11.881  18.523 -0.2750 -0.1214 -0.4422
 6918UDC     C976096   2.089  11.733  18.511 -0.1851  0.4086  0.3724
 6918UDC    C1076097   2.196  11.657  18.424  0.1382 -0.1030 -0.4348
 6918UDC    C1176098   2.164  11.526  18.360  0.4068  0.7513 -0.4214
 6919UDC     C176099  15.550  10.928  15.634  0.6480  0.6113  0.1442
 6919UDC     C276100  15.463  10.858  15.739 -0.5512  0.5901  0.0624
 6919UDC     C376101  15.454  10.932  15.876 -0.0830 -1.4277  0.0997
 6919UDC     C476102  15.412  10.848  15.995 -1.0274 -0.3661 -0.4821
 6919UDC     C576103  15.260  10.828  16.016  0.6733  0.2916 -0.7714
 6919UDC     C676104  15.217  10.711  16.121  0.4330  0.4220  0.9041
 6919UDC     C776105  15.070  10.683  16.155  0.9988  0.1431  0.0902
 6919UDC     C876106  15.076  10.600  16.287  0.1567  1.6081  0.3044
 6919UDC     C976107  15.147  10.674  16.402 -0.8308  0.1907  0.2882
 6919UDC    C1076108  15.229  10.566  16.478 -0.4783 -0.8983  0.4645
 6919UDC    C1176109  15.280  10.627  16.608  0.2509 -0.5589 -0.5071
 6920UDC     C176110   2.948  18.150  10.720  0.2297  0.6095  0.9744
 6920UDC     C276111   2.938  18.195  10.872  0.1058 -0.3044  0.0775
 6920UDC     C376112   2.888  18.077  10.960  0.7727  1.1880 -0.8348
 6920UDC     C476113   2.992  18.026  11.065  1.0925 -0.3866 -0.0659
 6920UDC     C576114   2.967  17.886  11.137  0.2186 -0.2609 -0.4251
 6920UDC     C676115   3.096  17.828  11.202  0.7064 -0.6957  0.4601
 6920UDC     C776116   3.065  17.785  11.340 -0.4142 -1.2987  0.0339
 6920UDC     C876117   2.951  17.684  11.371  0.4591  0.3272  1.3982
 6920UDC     C976118   2.921  17.538  11.314  0.1914  0.2963 -0.5843
 6920UDC    C1076119   3.012  17.426  11.376  0.0685  0.9790 -0.4281
 6920UDC    C1176120   2.968  17.387  11.519  0.0636  0.1716  0.6349
 6921UDC     C176121   3.161   1.516   8.674 -0.1691  0.3249 -0.3636
 6921UDC     C276122   3.199   1.639   8.769  0.5651 -0.6327 -0.3664
 6921UDC     C376123   3.311   1.728   8.711  0.0935 -1.6032 -0.9814
 6921UDC     C476124   3.300   1.880   8.721  0.8025 -0.1609 -0.1350
 6921UDC     C576125   3.432   1.964   8.702  0.0396  0.2388  0.3911
 6921UDC     C676126   3.495   1.948   8.560 -0.4916 -0.7751 -1.4586
 6921UDC     C776127   3.620   2.043   8.551  0.2805 -0.2960  0.7861
 6921UDC     C876128   3.662   2.055   8.405  0.7426 -0.6688 -1.4675
 6921UDC     C976129   3.795   2.132   8.407 -0.2092 -0.0124  0.6693
 6921UDC    C1076130   3.927   2.058   8.435 -0.0565  0.6610  0.3498
 6921UDC    C1176131   4.043   2.156   8.422  0.3259  0.3669 -0.9264
 6922UDC     C176132   2.853  15.832   2.147  0.2486  0.0115  0.2697
 6922UDC     C276133   2.758  15.892   2.038  0.9872  0.3734 -0.4060
 6922UDC     C376134   2.702  15.774   1.953  0.2238 -0.5310  1.0566
 6922UDC     C476135   2.810  15.676   1.901  0.3904  0.3495 -0.1134
 6922UDC     C576136   2.923  15.749   1.825  0.8258 -0.8918  1.2339
 6922UDC     C676137   3.045  15.675   1.776 -1.5755  0.6518  0.2328
 6922UDC     C776138   3.148  15.761   1.692  0.1097 -0.0444  0.2770
 6922UDC     C876139   3.262  15.849   1.768 -0.1091 -0.1697  0.7220
 6922UDC     C976140   3.357  15.768   1.857 -0.4226  1.1992  0.8628
 6922UDC    C1076141   3.476  15.834   1.934  0.2589  0.8995  0.3735
 6922UDC    C1176142   3.585  15.723   1.942  0.7144  0.5395 -0.4821
 6923UDC     C176143  11.622  18.627   9.124  0.4739 -0.2708  0.4743
 6923UDC     C276144  11.540  18.608   8.990  0.7963  1.1491 -0.3925
 6923UDC     C376145  11.609  18.661   8.864 -0.4432  0.2016 -0.3937
 6923UDC     C476146  11.516  18.687   8.744 -0.5230 -0.0272 -1.1829
 6923UDC     C576147  11.612  18.712   8.624  0.1042  0.7742  0.5070
 6923UDC     C676148  11.557  18.810   8.518  0.0127  0.6211 -0.4869
 6923UDC     C776149  11.569  18.957   8.560  0.5448  0.5168 -0.7268
 6923UDC     C876150  11.707  19.026   8.581  0.2539 -0.2019 -0.9228
 6923UDC     C976151  11.697  19.181   8.576  0.2036 -0.0092  0.7289
 6923UDC    C1076152  11.833  19.251   8.606 -0.8440  0.5923 -1.1290
 6923UDC    C1176153  11.909  19.225   8.743 -0.2566 -0.2743  0.4577
 6924UDC     C176154   6.789  11.481   1.237  0.8041 -1.0223  0.6517
 6924UDC     C276155   6.714  11.421   1.363 -0.8011 -0.0062 -0.8785
 6924UDC     C376156   6.793  11.312   1.437  1.2006  0.8003  0.1171
 6924UDC     C476157   6.738  11.175   1.394  0.2210 -0.8784 -0.5212
 6924UDC     C576158   6.662  11.090   1.491  1.2854 -0.0804 -2.0570
 6924UDC     C676159   6.676  10.937   1.486 -0.2556  0.0550 -0.2007
 6924UDC     C776160   6.617  10.884   1.619 -0.4271 -0.1925 -0.0821
 6924UDC     C876161   6.635  10.732   1.656  0.5239 -0.1446 -0.5077
 6924UDC     C976162   6.699  10.643   1.547  0.7256  0.3963 -0.2343
 6924UDC    C1076163   6.600  10.591   1.440 -0.9195  0.5204 -1.1924
 6924UDC    C1176164   6.677  10.533   1.320  0.6622  0.4828 -0.7951
 6925UDC     C176165   2.863   6.559  10.568 -0.0430 -0.5046 -0.8815
 6925UDC     C276166   2.829   6.552  10.418  0.3103 -1.0303 -1.3247
 6925UDC     C376167   2.734   6.670  10.380 -0.9793  0.7924  0.3883
 6925UDC     C476168   2.806   6.808  10.390  0.5583  1.3136  0.4236
 6925UDC     C576169   2.709   6.922  10.358 -0.4044 -0.6408  0.1872
 6925UDC     C676170   2.788   7.054  10.346  0.3602  1.5301 -0.1490
 6925UDC     C776171   2.695   7.176  10.325 -0.0371  1.3964 -0.9464
 6925UDC     C876172   2.590   7.194  10.439  0.0304  0.7984  0.8875
 6925UDC     C976173   2.474   7.301  10.417 -0.0763  2.2822 -0.5651
 6925UDC    C1076174   2.361   7.269  10.511  0.5213 -0.5746 -0.5623
 6925UDC    C1176175   2.277   7.156  10.461  0.2336  0.0014 -0.8459
 6926UDC     C176176  11.729  10.554   6.312 -0.6826 -0.0286  0.1704
 6926UDC     C276177  11.757  10.613   6.448 -0.8199 -0.7247  0.1249
 6926UDC     C376178  11.698  10.747   6.486 -0.1545  0.5896 -0.2011
 6926UDC     C476179  11.548  10.729   6.498  2.1814 -0.2260 -0.2918
 6926UDC     C576180  11.461  10.844   6.441  0.2751 -0.2700 -0.8727
 6926UDC     C676181  11.517  10.891   6.304  0.9132  0.4822  0.3607
 6926UDC     C776182  11.423  11.004   6.247 -0.8420  0.9480  0.4449
 6926UDC     C876183  11.418  11.128   6.342 -0.5172 -0.3201  0.8863
 6926UDC     C976184  11.529  11.221   6.300 -0.2593 -0.8594 -0.2158
 6926UDC    C1076185  11.510  11.373   6.331  0.7805 -0.3181 -0.2263
 6926UDC    C1176186  11.405  11.443   6.238 -0.2680 -0.3942 -0.6587
 6927UDC     C176187  15.463  16.736  18.963 -0.0968 -0.3240 -0.5684
 6927UDC     C276188  15.461  16.823  18.836  0.5978  1.0665 -0.6119
 6927UDC     C376189  15.593  16.813  18.754  0.4542 -0.5941 -0.2759
 6927UDC     C476190  15.702  16.919  18.765  0.0573 -0.1495 -0.4025
 6927UDC     C576191  15.822  16.893  18.674 -0.4134 -0.0119  0.0649
 6927UDC     C676192  15.941  16.830  18.738 -0.6547  0.5675  0.3248
 6927UDC     C776193  16.058  16.765  18.664  0.2243  0.8306  0.5858
 6927UDC     C876194  16.141  16.870  18.581  0.1163  1.0320  0.5475
 6927UDC     C976195  16.078  16.927  18.452  0.1627  0.1008  0.1714
 6927UDC    C1076196  16.181  16.955  18.344  0.2114  1.0560 -0.1746
 6927UDC    C1176197  16.248  16.831  18.277  0.4312 -0.3966  0.1063
 6928UDC     C176198   3.179  16.837   1.958  0.5794 -0.4055  0.5412
 6928UDC     C276199   3.308  16.753   1.976 -1.7788 -0.0580 -0.1013
 6928UDC     C376200   3.306  16.643   2.077  0.9342 -0.2001  0.3746
 6928UDC     C476201   3.432  16.560   2.088  0.6775 -1.0509  1.0227
 6928UDC     C576202   3.539  16.591   1.978 -0.3707 -0.3259 -0.1326
 6928UDC     C676203   3.644  16.477   1.970  0.4834  0.6911  0.0132
 6928UDC     C776204   3.748  16.481   1.859 -0.9124 -0.1914  0.0198
 6928UDC     C876205   3.836  16.360   1.874 -0.1019  0.1416  0.6965
 6928UDC     C976206   3.915  16.319   2.003  0.6741  0.2679 -0.1516
 6928UDC    C1076207   4.058  16.378   2.019  0.5401  0.8095 -0.5735
 6928UDC    C1176208   4.166  16.270   2.014 -0.7484 -0.2496  0.5337
 6929UDC     C176209   3.576   9.298   3.131  0.4092 -0.1673  0.5623
 6929UDC     C276210   3.559   9.187   3.227 -0.3553  0.7273  0.2055
 6929UDC     C376211   3.486   9.224   3.351  0.6179  0.0114 -0.2338
 6929UDC     C476212   3.575   9.327   3.433  0.5321 -0.4757 -0.5131
 6929UDC     C576213   3.506   9.377   3.557 -0.6435  0.5424  0.3301
 6929UDC     C676214   3.409   9.480   3.525 -1.1464 -0.2690  0.2124
 6929UDC     C776215   3.373   9.582   3.638 -0.3861  0.2418  0.4384
 6929UDC     C876216   3.340   9.503   3.763  0.4436 -0.3285  0.3456
 6929UDC     C976217   3.223   9.579   3.827  0.3291  0.4341 -1.2868
 6929UDC    C1076218   3.100   9.604   3.743 -0.1586 -0.2540  0.8282
 6929UDC    C1176219   3.005   9.490   3.749 -0.6635 -0.2856 -0.1515
 6930UDC     C176220   1.200   2.887   4.677 -0.1115 -0.1343  1.3633
 6930UDC     C276221   1.182   3.033   4.627 -0.3588  0.9059 -0.7330
 6930UDC     C376222   1.164   3.032   4.479 -0.3568  0.9673  0.5849
 6930UDC     C476223   1.146   3.174   4.436  0.7339 -0.3743 -0.3404
 6930UDC     C576224   1.008   3.228   4.496 -0.9402 -0.5861 -0.5824
 6930UDC     C676225   0.983   3.384   4.489  0.1999  1.3385  0.4818
 6930UDC     C776226   1.070   3.433   4.605 -0.1366  0.5875  0.4880
 6930UDC     C876227   1.105   3.587   4.604 -0.6897  0.8243 -0.1333
 6930UDC     C976228   1.256   3.602   4.616 -0.7530 -0.0361  0.1290
 6930UDC    C1076229   1.328   3.737   4.574 -0.2496  0.3841 -0.3949
 6930UDC    C1176230   1.483   3.742   4.572 -0.3694  0.5904  0.4134
 6931UDC     C176231  18.579   5.330  11.821 -0.1072 -1.4008  0.3344
 6931UDC     C276232  18.606   5.453  11.729 -0.8423  0.2983 -0.2538
 6931UDC     C376233  18.491   5.545  11.691 -0.0891  0.2956  0.5101
 6931UDC     C476234  18.547   5.631  11.573  0.2196  0.9539  0.3315
 6931UDC     C576235  18.660   5.543  11.523  0.9500 -0.5087  1.3648
 6931UDC     C676236  18.708   5.588  11.387  0.6554 -0.1242 -0.5237
 6931UDC     C776237  18.798   5.479  11.329 -0.6487  0.3429  0.4835
 6931UDC     C876238  18.907   5.531  11.222  0.0869  0.3536 -1.0314
 6931UDC     C976239  18.974   5.418  11.141 -0.9771  0.6166  0.7076
 6931UDC    C1076240  19.062   5.334  11.231  0.6753  0.3359 -0.2926
 6931UDC    C1176241  19.076   5.188  11.184 -0.0358  0.9600 -0.9544
 6932UDC     C176242   3.316  12.826  10.713 -0.3142 -0.1325  0.0608
 6932UDC     C276243   3.311  12.677  10.691  1.3395  0.5308  0.2197
 6932UDC     C376244   3.299  12.669  10.533 -0.0850  0.9111 -0.1742
 6932UDC     C476245   3.318  12.805  10.472 -0.5482  0.3535  0.8449
 6932UDC     C576246   3.344  12.828  10.323 -0.0709  0.0294  0.1812
 6932UDC     C676247   3.465  12.757  10.264 -0.3167  0.4537  0.9889
 6932UDC     C776248   3.611  12.802  10.298  0.3234 -0.7743 -0.2093
 6932UDC     C876249   3.646  12.937  10.226 -1.0691  0.1334  1.0595
 6932UDC     C976250   3.793  12.998  10.248  0.1297  0.4647 -0.7913
 6932UDC    C1076251   3.868  12.872  10.309  0.5323  1.0754  0.5912
 6932UDC    C1176252   4.008  12.897  10.363 -1.2181 -0.5467  0.0766
 6933UDC     C176253   1.314  15.509  18.553  0.1085 -0.4482  0.6675
 6933UDC     C276254   1.267  15.470  18.694 -0.4564  0.0462  0.6321
 6933UDC     C376255   1.171  15.574  18.762 -0.0226  0.4231  0.5644
 6933UDC     C476256   1.187  15.559  18.913  1.0588  0.0328 -1.0804
 6933UDC     C576257   1.143  15.428  18.983 -0.1339 -0.1836  0.6429
 6933UDC     C676258   1.179  15.424  19.133 -0.9443 -0.1462 -0.1202
 6933UDC     C776259   1.327  15.468  19.168  0.5564 -0.1122  0.1643
 6933UDC     C876260   1.423  15.367  19.107 -0.2991  0.3070  0.3547
 6933UDC     C976261   1.567  15.410  19.056 -0.9927 -0.6699 -1.0014
 6933UDC    C1076262   1.667  15.472  19.156  0.1972  1.0766 -0.2454
 6933UDC    C1176263   1.778  15.539  19.066 -0.1306  0.0887 -0.4444
 6934UDC     C176264  12.637  14.760   1.022 -0.4387 -0.2733  0.0514
 6934UDC     C276265  12.616  14.912   1.041 -0.8981  0.9959 -0.8990
 6934UDC     C376266  12.471  14.965   1.021 -0.7291  0.6121  1.0420
 6934UDC     C476267  12.457  15.109   1.073  0.9630 -1.3182 -1.7681
 6934UDC     C576268  12.410  15.215   0.972 -0.6171 -0.7487 -0.4074
 6934UDC     C676269  12.306  15.181   0.871 -0.1788  0.5554  0.6259
 6934UDC     C776270  12.300  15.294   0.767  0.5625 -0.6160 -0.3602
 6934UDC     C876271  12.186  15.287   0.658 -0.2237 -0.5267 -0.5541
 6934UDC     C976272  12.163  15.140   0.634 -0.1416  0.5990 -0.1554
 6934UDC    C1076273  12.066  15.103   0.522  0.4613  0.5215 -0.0629
 6934UDC    C1176274  12.085  15.207   0.409  0.3439  0.3668 -0.1081
 6935UDC     C176275  19.889   8.434   3.242 -0.2296 -0.0882 -0.5814
 6935UDC     C276276  19.827   8.479   3.376  0.3436  1.0933 -0.0780
 6935UDC     C376277  19.812   8.628   3.393  1.3546 -1.2327 -0.0133
 6935UDC     C476278  19.679   8.704   3.347  0.1529 -0.9596  0.7279
 6935UDC     C576279  19.702   8.855   3.348  0.6336 -0.4893 -0.0579
 6935UDC     C676280  19.602   8.949   3.280 -0.4246  0.9217  0.3686
 6935UDC     C776281  19.673   9.084   3.256 -0.7281 -0.1445 -0.2961
 6935UDC     C876282  19.582   9.179   3.177  1.4170  0.6889  0.2855
 6935UDC     C976283  19.658   9.305   3.144  0.3708 -0.5846  0.9511
 6935UDC    C1076284  19.630   9.336   2.991  0.6962 -0.6334 -0.9028
 6935UDC    C1176285  19.686   9.471   2.943 -0.6153  0.4079 -0.7097
 6936UDC     C176286   2.675   4.896   7.268  0.4715 -0.3889  0.5073
 6936UDC     C276287   2.794   4.801   7.231 -0.6777 -0.3317  0.2392
 6936UDC     C376288   2.886   4.885   7.139  0.0511  0.4244 -0.5363
 6936UDC     C476289   2.821   4.940   7.012 -0.5902 -0.8770 -0.0951
 6936UDC     C576290   2.839   4.832   6.900 -0.3139 -0.4423  0.1305
 6936UDC     C676291   2.778   4.871   6.765  0.8980  1.2124  0.0564
 6936UDC     C776292   2.723   4.762   6.670  0.0940  0.0294 -0.2526
 6936UDC     C876293   2.656   4.625   6.719  0.7527 -0.6413  0.2367
 6936UDC     C976294   2.569   4.546   6.620  0.2639 -0.5059  0.7527
 6936UDC    C1076295   2.650   4.494   6.511  0.5153 -0.4394  1.2114
 6936UDC    C1176296   2.573   4.398   6.415  0.3429 -0.5675  0.8002
 6937UDC     C176297  18.180  13.133   0.169 -0.1195  0.1115 -1.5384
 6937UDC     C276298  18.244  13.114   0.309 -0.2946 -1.0082 -0.8819
 6937UDC     C376299  18.375  13.038   0.307  0.5261 -0.8334  0.1265
 6937UDC     C476300  18.485  13.090   0.398  0.1700 -0.2309 -0.8438
 6937UDC     C576301  18.482  13.046   0.545  0.8121  0.5157 -0.4784
 6937UDC     C676302  18.619  13.065   0.618 -0.2899 -0.0375 -0.1776
 6937UDC     C776303  18.736  12.991   0.557  0.6357  0.0593 -0.0915
 6937UDC     C876304  18.810  12.901   0.655  0.2341 -1.0119 -0.1259
 6937UDC     C976305  18.884  13.002   0.748 -0.7876  0.2004  0.3779
 6937UDC    C1076306  18.906  12.955   0.892  0.1543  1.2670 -0.2576
 6937UDC    C1176307  19.025  12.857   0.915  0.3836  0.6351  0.4885
 6938UDC     C176308  17.115  10.861  17.577 -0.2381  0.0715  0.6756
 6938UDC     C276309  17.266  10.898  17.574 -0.1684 -0.3916  0.7331
 6938UDC     C376310  17.290  11.040  17.513 -0.7969 -0.7991  0.4931
 6938UDC     C476311  17.430  11.044  17.446 -0.1578  0.5064 -0.5278
 6938UDC     C576312  17.459  10.976  17.309 -0.4162 -0.4998  0.7312
 6938UDC     C676313  17.603  11.031  17.274  0.2894 -0.2818 -0.2465
 6938UDC     C776314  17.647  11.135  17.374  1.3259 -0.0925 -0.1958
 6938UDC     C876315  17.789  11.187  17.385 -0.5497 -0.5332 -0.8838
 6938UDC     C976316  17.803  11.266  17.523  0.2461 -0.4043  0.4042
 6938UDC    C1076317  17.942  11.342  17.546 -0.3607 -0.6214 -0.0591
 6938UDC    C1176318  18.062  11.248  17.589  0.5375  0.9519 -0.2299
 6939UDC     C176319  15.471   6.185   8.901 -0.1995 -0.5989 -0.4707
 6939UDC     C276320  15.535   6.259   9.018  0.5575 -0.3219  0.4198
 6939UDC     C376321  15.453   6.389   9.066 -0.7058  0.1099  0.1531
 6939UDC     C476322  15.514   6.456   9.186 -0.1880 -0.2795 -0.9799
 6939UDC     C576323  15.424   6.574   9.230  0.6354 -0.0343  0.3868
 6939UDC     C676324  15.500   6.694   9.297  0.2084 -0.2934 -0.2759
 6939UDC     C776325  15.598   6.639   9.403  0.1555 -0.1844  0.1864
 6939UDC     C876326  15.717   6.728   9.441  0.2770  0.4101 -0.1544
 6939UDC     C976327  15.820   6.635   9.516  0.2204 -0.6766  0.7403
 6939UDC    C1076328  15.959   6.693   9.536 -0.1119 -0.2854 -0.0609
 6939UDC    C1176329  15.971   6.807   9.636 -0.5963 -0.9340  1.1197
 6940UDC     C176330   5.798   9.782  12.421  0.2542 -0.4216 -0.3681
 6940UDC     C276331   5.807   9.632  12.421 -0.1782  0.3640 -0.2918
 6940UDC     C376332   5.939   9.587  12.488  0.4170  0.7020  0.2150
 6940UDC     C476333   5.929   9.589  12.645  0.1609 -0.3125 -0.1411
 6940UDC     C576334   5.925   9.722  12.721 -0.0927  0.2164  0.0686
 6940UDC     C676335   5.985   9.746  12.862 -0.0169  0.6807  0.9957
 6940UDC     C776336   5.933   9.710  13.003  1.4605  0.1375  0.8890
 6940UDC     C876337   6.031   9.658  13.104  0.1241  0.1252 -0.1695
 6940UDC     C976338   6.141   9.762  13.102  1.0395 -0.1174  1.6289
 6940UDC    C1076339   6.281   9.718  13.128 -0.6257  0.1724  0.2092
 6940UDC    C1176340   6.404   9.813  13.117 -0.1451  0.6710  0.7534
 6941UDC     C176341   2.608   6.514  16.037 -0.5904 -0.3556  0.0595
 6941UDC     C276342   2.563   6.540  16.183 -0.3750  0.5204 -0.9133
 6941UDC     C376343   2.450   6.645  16.199 -0.4931 -0.4361  0.9605
 6941UDC     C476344   2.363   6.627  16.321 -0.1689 -0.2024  0.1886
 6941UDC     C576345   2.425   6.651  16.460 -0.2726 -0.7537 -0.4666
 6941UDC     C676346   2.360   6.768  16.529 -0.6000 -0.2574 -1.6460
 6941UDC     C776347   2.447   6.811  16.648  0.1187 -0.4428 -0.0774
 6941UDC     C876348   2.584   6.862  16.620  0.7627 -0.6391 -0.0994
 6941UDC     C976349   2.593   7.017  16.624  0.7239  0.4337 -0.3721
 6941UDC    C1076350   2.591   7.062  16.768  0.1000  0.7640 -0.4210
 6941UDC    C1176351   2.717   7.123  16.839  0.6485  0.1526  0.5239
 6942UDC     C176352  18.200   4.123  12.706  0.7201  0.5999  0.3746
 6942UDC     C276353  18.126   4.200  12.603  0.4606 -0.0213 -0.3822
 6942UDC     C376354  18.005   4.278  12.671  0.0922  0.3483 -0.3697
 6942UDC     C476355  17.919   4.370  12.585  0.6541 -0.1611  0.1986
 6942UDC     C576356  17.787   4.431  12.640  0.3683  0.1327  0.0123
 6942UDC     C676357  17.665   4.350  12.596  1.3272 -0.1658  0.9287
 6942UDC     C776358  17.535   4.417  12.642  1.0113  1.0137  0.2738
 6942UDC     C876359  17.517   4.520  12.529  0.1005 -0.4707 -1.2759
 6942UDC     C976360  17.371   4.573  12.529  1.0550 -0.6376 -0.5805
 6942UDC    C1076361  17.348   4.691  12.631 -0.2665  0.5168 -0.1298
 6942UDC    C1176362  17.353   4.661  12.775 -0.5932 -0.3762 -0.7236
 6943UDC     C176363   2.984   0.774   3.795  0.0922 -0.8131 -0.2191
 6943UDC     C276364   2.882   0.756   3.677 -1.3362  0.2356  1.3231
 6943UDC     C376365   2.863   0.604   3.654 -0.2378  0.7029  0.7544
 6943UDC     C476366   2.881   0.565   3.507  0.2496 -0.4693  0.3520
 6943UDC     C576367   2.903   0.416   3.502 -0.1715  0.1916  0.5735
 6943UDC     C676368   2.963   0.348   3.624  0.4076  0.8233 -0.2458
 6943UDC     C776369   2.929   0.198   3.634 -0.7545  0.1158  0.3339
 6943UDC     C876370   2.997   0.151   3.762  0.0165 -0.1692  0.3212
 6943UDC     C976371   2.966   0.224   3.891 -0.3283  0.1553 -0.1655
 6943UDC    C1076372   3.066   0.167   3.997  0.7727 -0.6294 -1.7244
 6943UDC    C1176373   3.024   0.023   4.035  0.6071  0.3183  0.0008
 6944UDC     C176374   6.322   3.279  12.134 -1.2110 -0.1184 -0.3654
 6944UDC     C276375   6.219   3.259  12.027 -0.5530  0.9434  0.3973
 6944UDC     C376376   6.204   3.109  11.960  0.1845  0.1243  0.2513
 6944UDC     C476377   6.114   3.117  11.841  0.4798 -0.8926  0.2893
 6944UDC     C576378   5.971   3.147  11.885  0.3431 -0.4762  0.3687
 6944UDC     C676379   5.860   3.096  11.794  0.2384 -0.5518  0.7624
 6944UDC     C776380   5.739   3.107  11.881 -0.0589  0.4897  0.2309
 6944UDC     C876381   5.615   3.053  11.804  0.1245 -0.1962 -1.7638
 6944UDC     C976382   5.634   2.926  11.724 -0.8348 -0.8658  0.0756
 6944UDC    C1076383   5.500   2.896  11.654 -0.0628  0.7044 -0.1844
 6944UDC    C1176384   5.500   2.761  11.584  0.5446  0.6108 -0.4130
 6945UDC     C176385   0.970  15.071   1.181  0.6187 -0.2524  0.3648
 6945UDC     C276386   1.014  14.938   1.233 -1.0186  1.0485  0.7793
 6945UDC     C376387   1.114  14.937   1.358  0.1553  0.1510 -1.1720
 6945UDC     C476388   1.104  14.804   1.440 -0.6278 -0.1162 -0.1793
 6945UDC     C576389   1.187  14.806   1.568 -0.2085 -0.6536 -0.1521
 6945UDC     C676390   1.161  14.695   1.673  1.2272  0.4179 -0.1389
 6945UDC     C776391   1.271  14.678   1.775 -0.8033 -0.6440 -0.5168
 6945UDC     C876392   1.243  14.630   1.920  0.0463 -0.5437  0.3325
 6945UDC     C976393   1.136  14.507   1.917 -0.7285 -0.4364 -0.2335
 6945UDC    C1076394   1.102  14.431   2.046  0.4393 -0.3507  0.3597
 6945UDC    C1176395   0.960  14.469   2.097  0.8018  0.3966  0.7913
 6946UDC     C176396   1.780   5.482   7.139  0.0842  0.1775 -0.5315
 6946UDC     C276397   1.645   5.446   7.199 -1.5363  0.2799 -0.3655
 6946UDC     C376398   1.543   5.413   7.089  0.3714 -0.4441  0.8208
 6946UDC     C476399   1.519   5.530   6.998  0.1717  0.8354 -0.8588
 6946UDC     C576400   1.376   5.551   6.963  0.4210 -0.5993  0.4213
 6946UDC     C676401   1.369   5.654   6.859  0.2689 -1.5405  0.7463
 6946UDC     C776402   1.290   5.608   6.741  0.7050  0.1535  0.7813
 6946UDC     C876403   1.370   5.507   6.652 -0.2893  1.5081  0.0559
 6946UDC     C976404   1.280   5.468   6.532  0.1971  0.8240 -1.4755
 6946UDC    C1076405   1.351   5.432   6.408 -0.1459  0.0846  0.2248
 6946UDC    C1176406   1.435   5.535   6.332 -0.4998  0.1236 -0.2781
 6947UDC     C176407   3.797  19.274  14.431  0.0800 -0.0994  0.4568
 6947UDC     C276408   3.901  19.389  14.447  1.0830  0.8367  0.4909
 6947UDC     C376409   3.975  19.388  14.580 -0.1321 -0.2176  0.5147
 6947UDC     C476410   4.083  19.495  14.594  0.8491  0.1222 -0.6584
 6947UDC     C576411   4.190  19.485  14.714  0.9234 -0.0371 -0.7201
 6947UDC     C676412   4.326  19.542  14.667  0.9657 -0.2953  0.9205
 6947UDC     C776413   4.410  19.589  14.789  0.5809  0.3986 -0.1746
 6947UDC     C876414   4.486  19.477  14.868 -0.0361 -0.0562  1.1955
 6947UDC     C976415   4.513  19.508  15.010  0.0475 -0.8628 -0.2504
 6947UDC    C1076416   4.440  19.406  15.099  0.8760 -0.9636 -0.2997
 6947UDC    C1176417   4.509  19.438  15.227 -1.0053  0.2123 -0.2275
 6948UDC     C176418  19.414  17.011   1.358  0.0490  0.0701 -1.7620
 6948UDC     C276419  19.378  17.023   1.214 -0.3117 -0.4315  0.3548
 6948UDC     C376420  19.460  17.148   1.162 -0.1483  0.0634  0.3357
 6948UDC     C476421  19.404  17.274   1.231 -0.1753  0.4393 -1.4089
 6948UDC     C576422  19.262  17.307   1.195  0.6020  0.4705 -0.3934
 6948UDC     C676423  19.209  17.405   1.297 -0.2116  0.5255 -0.6682
 6948UDC     C776424  19.185  17.346   1.437  0.3497 -0.0952 -0.0346
 6948UDC     C876425  19.090  17.222   1.410 -0.3417 -0.2492 -0.8327
 6948UDC     C976426  19.078  17.117   1.525 -0.1890 -0.4783  0.8425
 6948UDC    C1076427  18.971  17.010   1.510  0.5984 -0.0369  0.3690
 6948UDC    C1176428  18.950  16.939   1.647  0.5967  0.9374 -0.1801
 6949UDC     C176429   2.512   7.955  13.233 -0.3957  0.4649 -0.1663
 6949UDC     C276430   2.588   8.028  13.121 -0.6078  0.2019  0.0797
 6949UDC     C376431   2.498   8.112  13.035 -0.7388 -0.8406  0.3775
 6949UDC     C476432   2.418   8.044  12.921 -0.9066 -0.6994 -0.4302
 6949UDC     C576433   2.362   8.159  12.832 -0.6401  0.1752 -1.0015
 6949UDC     C676434   2.262   8.110  12.726 -0.4478 -0.5230  0.5737
 6949UDC     C776435   2.208   8.232  12.639 -0.3297  0.8525 -0.5481
 6949UDC     C876436   2.072   8.277  12.680  0.3900 -0.7095  1.4688
 6949UDC     C976437   1.970   8.181  12.638  0.5842  0.4742  0.5437
 6949UDC    C1076438   1.929   8.188  12.488 -0.4436 -0.4028  0.4786
 6949UDC    C1176439   1.874   8.060  12.436  0.5618 -0.5422  0.2522
 6950UDC     C176440  17.450  12.200   3.476  0.5635 -0.3347 -0.1656
 6950UDC     C276441  17.568  12.190   3.574 -0.8411  1.1940  0.7718
 6950UDC     C376442  17.507  12.176   3.719 -0.9615 -0.5944  0.0001
 6950UDC     C476443  17.610  12.162   3.833  0.6144 -0.0605  0.8411
 6950UDC     C576444  17.638  12.019   3.863  0.3743  0.3376 -0.8267
 6950UDC     C676445  17.766  12.003   3.934 -0.6858  0.3140 -0.2406
 6950UDC     C776446  17.795  12.058   4.077  0.0002 -0.1813 -0.0522
 6950UDC     C876447  17.945  12.078   4.095 -0.8572 -0.3184 -0.0807
 6950UDC     C976448  17.974  12.086   4.244 -0.0361  0.2736 -0.1971
 6950UDC    C1076449  17.924  11.974   4.335 -0.2681 -0.3497  0.5264
 6950UDC    C1176450  17.940  11.987   4.487  0.4134  0.2087 -0.4293
 6951UDC     C176451   7.379  10.622  11.142  0.2051 -0.3154  0.2467
 6951UDC     C276452   7.412  10.489  11.204 -1.2663  0.6083  0.2084
 6951UDC     C376453   7.517  10.487  11.319  0.8169 -0.6066 -0.2426
 6951UDC     C476454   7.494  10.380  11.427 -0.3879  1.4465 -0.7756
 6951UDC     C576455   7.348  10.360  11.475  0.3544  0.3391  0.0911
 6951UDC     C676456   7.322  10.252  11.587 -0.4905  0.1675  0.0792
 6951UDC     C776457   7.173  10.213  11.591  0.3441  0.2435 -0.6724
 6951UDC     C876458   7.140  10.082  11.661 -0.8220  0.6455  0.3298
 6951UDC     C976459   6.990  10.057  11.667  0.2716  0.9534  0.0096
 6951UDC    C1076460   6.958   9.925  11.738  0.1721 -0.8765  0.7399
 6951UDC    C1176461   6.805   9.904  11.744  0.6798  0.0903 -0.2412
 6952UDC     C176462   2.569  16.665   8.792 -1.3241 -1.5178 -0.2328
 6952UDC     C276463   2.641  16.741   8.904 -0.6771  0.1223  0.0368
 6952UDC     C376464   2.559  16.863   8.954  0.5009  0.1153  0.1126
 6952UDC     C476465   2.598  16.920   9.089 -1.2451 -0.8131 -0.6119
 6952UDC     C576466   2.580  16.826   9.211  0.9146  0.2142  0.2068
 6952UDC     C676467   2.586  16.896   9.343 -0.6275 -0.5289  0.6733
 6952UDC     C776468   2.534  16.815   9.458 -0.4757  1.2060  0.0886
 6952UDC     C876469   2.557  16.660   9.466  0.7873 -0.0798  0.0012
 6952UDC     C976470   2.466  16.586   9.566  0.4783  0.3681 -0.6746
 6952UDC    C1076471   2.456  16.434   9.550  0.2684 -0.1173  0.7869
 6952UDC    C1176472   2.542  16.339   9.629  0.4123 -0.2854  0.3589
 6953UDC     C176473  11.435   5.374   7.111 -0.2857 -0.2746 -1.1870
 6953UDC     C276474  11.578   5.369   7.162  0.9190 -0.0545 -0.3095
 6953UDC     C376475  11.630   5.251   7.248 -1.4579  0.4371  0.4210
 6953UDC     C476476  11.628   5.116   7.174 -0.5273  1.7227 -0.1569
 6953UDC     C576477  11.699   4.995   7.235 -0.3491 -0.4971  0.4006
 6953UDC     C676478  11.652   4.849   7.192  0.4474  0.1666  0.0825
 6953UDC     C776479  11.780   4.768   7.235 -0.8698  0.4376  0.2324
 6953UDC     C876480  11.896   4.800   7.145  0.2146 -0.2506  0.0896
 6953UDC     C976481  11.883   4.749   6.997  0.6159 -0.2750 -0.2265
 6953UDC    C1076482  12.014   4.747   6.910 -0.2748  0.6340  0.4149
 6953UDC    C1176483  12.003   4.628   6.807  0.1308 -0.5964  1.2523
 6954UDC     C176484   0.901  13.132  18.136  0.2273  0.9542  0.0554
 6954UDC     C276485   0.772  13.202  18.181  0.7998 -0.7979 -0.4645
 6954UDC     C376486   0.644  13.116  18.189 -0.5154 -0.3451 -0.2526
 6954UDC     C476487   0.519  13.191  18.235 -0.0484 -0.1099 -0.3536
 6954UDC     C576488   0.390  13.153  18.168  1.4296 -0.9662 -0.3264
 6954UDC     C676489   0.391  13.182  18.011 -0.2128  0.5312 -0.0856
 6954UDC     C776490   0.256  13.170  17.935  0.8004 -0.6096  0.5437
 6954UDC     C876491   0.243  13.214  17.793  0.1705  0.6487 -0.5067
 6954UDC     C976492   0.278  13.100  17.692  0.1076  1.1202  0.6537
 6954UDC    C1076493   0.293  13.155  17.546 -0.6169  0.1800  0.6465
 6954UDC    C1176494   0.162  13.156  17.473  0.8805 -0.5494  0.5493
 6955UDC     C176495   0.756  10.057   0.504 -1.5118 -0.2143 -0.0847
 6955UDC     C276496   0.864   9.948   0.500 -0.0835  0.8994 -0.0428
 6955UDC     C376497   0.997   9.999   0.455 -0.7068 -0.3718  0.3975
 6955UDC     C476498   1.088  10.005   0.582  0.8307  0.8384  0.7062
 6955UDC     C576499   1.032  10.078   0.704 -0.2536  0.6681  1.0369
 6955UDC     C676500   1.115  10.050   0.822  0.4625  0.1380 -1.1424
 6955UDC     C776501   1.074  10.114   0.962 -0.3838  0.6628  0.9411
 6955UDC     C876502   1.141  10.061   1.085  0.6417 -0.3235 -0.4212
 6955UDC     C976503   1.053  10.083   1.215 -0.7321  0.1104  0.9817
 6955UDC    C1076504   1.107  10.055   1.349 -1.2469 -0.4390 -0.2540
 6955UDC    C1176505   1.247  10.105   1.388 -0.0799  1.0841  0.2059
 6956UDC     C176506  13.142   8.115   3.034  0.4761  0.2765  0.6630
 6956UDC     C276507  13.158   8.013   3.143  0.6125 -0.1664 -1.7239
 6956UDC     C376508  13.210   8.072   3.274  0.1618  0.2943 -0.6824
 6956UDC     C476509  13.210   7.985   3.399  0.0155 -0.2747 -1.9614
 6956UDC     C576510  13.087   7.897   3.417 -0.0304 -0.3153  0.0811
 6956UDC     C676511  13.098   7.793   3.536 -0.1165 -0.2074 -1.1085
 6956UDC     C776512  12.986   7.700   3.558  0.6982 -1.5315  0.1375
 6956UDC     C876513  13.035   7.567   3.618 -0.8261  0.9079  1.3017
 6956UDC     C976514  13.128   7.555   3.736  0.3606 -0.3231  0.1601
 6956UDC    C1076515  13.137   7.412   3.793  0.0551  0.2955  0.5596
 6956UDC    C1176516  13.212   7.407   3.930 -0.5223 -0.4115 -0.7192
 6957UDC     C176517  18.618  15.073  15.832 -1.0575 -0.1404  0.3253
 6957UDC     C276518  18.630  15.202  15.919  2.0300 -0.1548  1.1643
 6957UDC     C376519  18.713  15.210  16.041  0.6136 -0.1728  0.3827
 6957UDC     C476520  18.680  15.118  16.158  0.6580 -0.6195  0.5518
 6957UDC     C576521  18.737  15.186  16.284 -1.2592 -0.2054  1.6983
 6957UDC     C676522  18.676  15.128  16.412 -1.8683 -0.0133 -0.7471
 6957UDC     C776523  18.573  15.238  16.455 -0.3422  1.7597 -0.0033
 6957UDC     C876524  18.530  15.202  16.596 -0.7164  0.0571 -0.1753
 6957UDC     C976525  18.521  15.049  16.636 -0.1223  0.2818 -0.7930
 6957UDC    C1076526  18.483  15.005  16.779  0.6169 -2.0140  0.6329
 6957UDC    C1176527  18.582  15.066  16.875  0.0946  0.0317  0.1912
 6958UDC     C176528  16.210  10.793  14.125  0.3889  0.2178 -1.3456
 6958UDC     C276529  16.125  10.774  14.007  0.3489  0.0872  0.2087
 6958UDC     C376530  16.034  10.890  13.964  0.2016 -0.0537  0.1174
 6958UDC     C476531  15.990  10.888  13.813 -0.5075 -0.1021 -0.4582
 6958UDC     C576532  16.022  11.026  13.748 -0.3960  0.9168  0.2470
 6958UDC     C676533  15.942  11.141  13.805  0.3389  0.2454 -0.4017
 6958UDC     C776534  15.952  11.264  13.720  0.1818 -0.6063  0.1228
 6958UDC     C876535  15.881  11.262  13.588  1.7323  0.4909 -0.2220
 6958UDC     C976536  15.836  11.398  13.536 -1.1716  0.4971 -0.2641
 6958UDC    C1076537  15.783  11.368  13.390 -0.6055  1.2771 -0.9476
 6958UDC    C1176538  15.647  11.283  13.379 -0.3266  0.2228 -0.1970
 6959UDC     C176539   5.865   5.173  18.999  0.7843 -0.1029 -0.7767
 6959UDC     C276540   5.764   5.198  19.111 -0.0748 -0.5717 -0.7486
 6959UDC     C376541   5.823   5.151  19.245 -0.3331 -0.1592  0.4681
 6959UDC     C476542   5.939   5.243  19.297 -0.2660  1.2753 -0.1249
 6959UDC     C576543   5.987   5.226  19.446 -0.1785 -0.0695  0.9215
 6959UDC     C676544   5.927   5.098  19.514 -0.0019 -0.8670  0.5948
 6959UDC     C776545   5.936   5.128  19.660 -0.6467 -0.6893 -0.4967
 6959UDC     C876546   5.888   5.021  19.751  0.0938  0.1708  0.2272
 6959UDC     C976547   5.833   5.069  19.884  0.1727  0.4813 -0.0608
 6959UDC    C1076548   5.763   5.198  19.867 -0.3236 -0.0082 -0.3237
 6959UDC    C1176549   5.742   5.259  20.004  0.0089 -0.5368 -0.3259
 6960UDC     C176550   6.960  12.182  13.184 -0.1475 -0.1350 -0.1711
 6960UDC     C276551   6.989  12.057  13.267  0.2634  0.9279 -0.4731
 6960UDC     C376552   6.943  12.088  13.412 -0.0710  1.1885 -0.0780
 6960UDC     C476553   6.831  12.198  13.421 -0.4606  0.4932  0.4641
 6960UDC     C576554   6.695  12.160  13.456  0.7876  0.7789 -0.7785
 6960UDC     C676555   6.589  12.273  13.454 -0.6825  0.5337 -0.0889
 6960UDC     C776556   6.462  12.208  13.505 -0.6331  0.0528 -0.3430
 6960UDC     C876557   6.346  12.292  13.555  0.0577 -0.1386 -0.0084
 6960UDC     C976558   6.210  12.214  13.570  0.0524 -1.1446  0.1334
 6960UDC    C1076559   6.225  12.073  13.636  0.2735  0.7908  0.2793
 6960UDC    C1176560   6.230  12.045  13.789 -0.6913  0.4760 -1.2534
 6961UDC     C176561  12.586  12.177   8.088  0.1931 -0.2051 -0.2741
 6961UDC     C276562  12.639  12.325   8.087 -0.1112 -0.1903  0.3243
 6961UDC     C376563  12.747  12.348   8.193  1.0869  0.2114 -0.2513
 6961UDC     C476564  12.883  12.284   8.156 -0.4126 -0.2058 -0.6718
 6961UDC     C576565  12.990  12.273   8.272 -0.3725  0.3361  0.9209
 6961UDC     C676566  12.953  12.176   8.384  1.2346 -0.4023 -0.0036
 6961UDC     C776567  12.997  12.040   8.341 -0.9744  1.0542  0.2913
 6961UDC     C876568  12.988  11.949   8.458 -0.5394  0.5117  0.0025
 6961UDC     C976569  13.032  11.805   8.424  0.0327 -0.3969 -0.0661
 6961UDC    C1076570  12.944  11.694   8.484  1.3125  0.1843  1.2531
 6961UDC    C1176571  13.006  11.557   8.484  0.1901  1.0715  0.3654
 6962UDC     C176572  17.447   5.629  13.738  0.2120  0.7464  0.1314
 6962UDC     C276573  17.535   5.645  13.611 -0.9971  1.0891  0.3201
 6962UDC     C376574  17.636   5.529  13.593 -0.5446 -0.6528 -0.3013
 6962UDC     C476575  17.754   5.543  13.498 -0.8215 -0.0862  0.5488
 6962UDC     C576576  17.850   5.416  13.488  0.7307  1.4735  0.1695
 6962UDC     C676577  17.950   5.396  13.367  0.2841  0.2829 -0.5519
 6962UDC     C776578  17.883   5.320  13.240 -0.7838 -0.9348  0.2297
 6962UDC     C876579  17.968   5.239  13.136  0.7844 -0.4731  0.6557
 6962UDC     C976580  18.073   5.173  13.224  0.1684  0.5916  0.8839
 6962UDC    C1076581  18.121   5.051  13.147 -0.4218  0.6717  0.0358
 6962UDC    C1176582  17.998   4.963  13.139 -1.3194  0.3627 -0.7182
 6963UDC     C176583   1.048   1.221  10.965  0.2564 -0.1971  0.0935
 6963UDC     C276584   1.140   1.190  11.082  0.8754  1.2997 -0.7542
 6963UDC     C376585   1.074   1.121  11.200  0.1704  0.4642  0.0875
 6963UDC     C476586   1.167   1.086  11.314 -0.3369 -0.5544  0.4060
 6963UDC     C576587   1.222   1.207  11.393  0.0093 -0.2401  0.6758
 6963UDC     C676588   1.368   1.203  11.447 -0.1074  0.3186 -0.0426
 6963UDC     C776589   1.429   1.321  11.531 -0.4402  0.5998  0.3776
 6963UDC     C876590   1.581   1.335  11.556 -0.8100 -0.4207 -0.1679
 6963UDC     C976591   1.623   1.438  11.658 -0.6572  0.3848 -0.3444
 6963UDC    C1076592   1.592   1.409  11.801  0.6741 -0.2007  0.0597
 6963UDC    C1176593   1.700   1.464  11.892  0.6781  0.1610  0.4583
 6964UDC     C176594  10.870  11.950   2.902  1.1103  0.2709  0.7960
 6964UDC     C276595  10.989  12.011   2.833  0.3392  0.6088 -0.4971
 6964UDC     C376596  10.983  12.015   2.688 -1.3137 -0.9050  0.7417
 6964UDC     C476597  11.090  12.105   2.621  0.6237  0.3095 -0.3719
 6964UDC     C576598  11.062  12.107   2.466 -0.0438  0.1764 -0.0172
 6964UDC     C676599  11.127  12.210   2.361 -0.8718 -0.8129  0.5550
 6964UDC     C776600  11.082  12.188   2.206 -0.0372  0.3570 -0.4149
 6964UDC     C876601  11.186  12.248   2.107 -0.4368  0.3431 -0.6435
 6964UDC     C976602  11.250  12.165   1.993 -0.3906  0.3390  1.7547
 6964UDC    C1076603  11.376  12.223   1.929  0.4722  0.1913  0.2232
 6964UDC    C1176604  11.509  12.142   1.938  0.0787 -0.4351 -0.2953
 6965UDC     C176605   3.470  12.295   6.794 -0.5287 -0.2507  0.0050
 6965UDC     C276606   3.351  12.233   6.864  0.0727  0.1520 -0.7309
 6965UDC     C376607   3.214  12.284   6.821  1.1452  0.6190  0.9438
 6965UDC     C476608   3.228  12.339   6.676  0.6850  0.3362 -1.5440
 6965UDC     C576609   3.096  12.403   6.633  0.5342 -0.9018 -0.3357
 6965UDC     C676610   3.087  12.479   6.494 -0.0993  1.2807  0.2048
 6965UDC     C776611   3.120  12.626   6.509  0.9360 -0.3581  1.1088
 6965UDC     C876612   3.061  12.699   6.628 -0.5867  0.4604 -0.2979
 6965UDC     C976613   3.142  12.821   6.670 -0.3739 -0.1954  1.2680
 6965UDC    C1076614   3.071  12.902   6.774  0.0840  0.0993  0.8336
 6965UDC    C1176615   3.053  12.845   6.916  0.4937  0.9477 -0.5463
 6966UDC     C176616  10.950  10.823  10.131  0.0862 -0.3756  0.1008
 6966UDC     C276617  11.030  10.870  10.254 -0.1003  0.4830 -0.7021
 6966UDC     C376618  11.074  10.748  10.335  0.7158 -0.6477 -0.1064
 6966UDC     C476619  11.210  10.696  10.336 -0.9161  0.0212  0.1163
 6966UDC     C576620  11.311  10.782  10.406  0.9752  0.7089  0.1848
 6966UDC     C676621  11.446  10.788  10.334 -0.6302  0.6302  0.2914
 6966UDC     C776622  11.480  10.643  10.291  0.5182  0.8001  0.8720
 6966UDC     C876623  11.577  10.576  10.397 -0.4469 -1.4406  0.7498
 6966UDC     C976624  11.680  10.467  10.349 -0.9459  0.3169  0.2562
 6966UDC    C1076625  11.738  10.371  10.455 -0.2425 -0.0767 -0.4203
 6966UDC    C1176626  11.663  10.245  10.493 -0.4440 -1.1156  0.5396
 6967UDC     C176627  17.907  14.218   0.025  0.2234 -0.1477 -0.4341
 6967UDC     C276628  17.925  14.127  -0.088 -1.0063  0.2439  0.0815
 6967UDC     C376629  17.851  13.995  -0.079  0.3801  0.4890  0.6657
 6967UDC     C476630  17.823  13.953  -0.223  0.2378  0.7766 -0.0093
 6967UDC     C576631  17.773  14.054  -0.323 -0.5674 -0.0235  0.1405
 6967UDC     C676632  17.625  14.081  -0.318  0.1598 -0.1367 -0.7373
 6967UDC     C776633  17.575  14.205  -0.397  0.3924 -0.7842  0.1423
 6967UDC     C876634  17.600  14.205  -0.546 -0.5594  1.1964  0.7734
 6967UDC     C976635  17.549  14.330  -0.614  0.3994  0.0233 -0.4848
 6967UDC    C1076636  17.615  14.332  -0.753 -0.0762  0.2170  0.0716
 6967UDC    C1176637  17.528  14.276  -0.870  0.3648 -0.0240  0.0405
 6968UDC     C176638   3.590  14.810   6.586 -0.6666  0.1671 -0.1126
 6968UDC     C276639   3.667  14.791   6.726  0.0733  1.0658 -0.6700
 6968UDC     C376640   3.821  14.796   6.728  0.1048  0.3407 -0.2050
 6968UDC     C476641   3.887  14.661   6.693  0.6669 -0.4292 -0.7782
 6968UDC     C576642   3.932  14.668   6.544  0.4225  0.4409 -1.2992
 6968UDC     C676643   4.081  14.628   6.521 -0.3538 -0.3026  0.2870
 6968UDC     C776644   4.185  14.735   6.576 -0.0786  0.0266 -0.9816
 6968UDC     C876645   4.233  14.719   6.724  0.0080 -1.1172 -0.1105
 6968UDC     C976646   4.382  14.767   6.756  0.5095 -1.4938 -1.0155
 6968UDC    C1076647   4.405  14.785   6.910 -0.0118  1.2751 -0.4752
 6968UDC    C1176648   4.384  14.655   6.995  0.7227  0.3624 -0.5387
 6969UDC     C176649  16.084   3.556   5.586 -0.1820 -0.8495 -0.4153
 6969UDC     C276650  15.997   3.447   5.663 -0.1590 -0.9423 -0.8234
 6969UDC     C376651  15.918   3.343   5.583  0.0825 -0.1719 -1.3967
 6969UDC     C476652  15.794   3.322   5.680 -0.2800 -0.0677 -0.4237
 6969UDC     C576653  15.696   3.441   5.699  0.6133  0.4966  0.7004
 6969UDC     C676654  15.585   3.420   5.803  0.4180  1.3146  0.2505
 6969UDC     C776655  15.485   3.311   5.779 -0.7914  0.8534  0.1368
 6969UDC     C876656  15.369   3.311   5.878  0.7889 -1.1743  0.7494
 6969UDC     C976657  15.271   3.194   5.850 -0.3206  0.7452 -1.1849
 6969UDC    C1076658  15.175   3.183   5.970  0.5400 -0.7760  0.0292
 6969UDC    C1176659  15.071   3.292   5.968 -1.0140  0.4914  0.8520
 6970UDC     C176660   2.399  15.958   4.562 -0.6438  0.6446  1.1138
 6970UDC     C276661   2.523  16.043   4.577 -0.1693  0.2945 -0.0830
 6970UDC     C376662   2.640  15.980   4.650  0.0160 -1.4884 -0.2780
 6970UDC     C476663   2.780  16.024   4.587  0.1559 -0.7670  0.8981
 6970UDC     C576664   2.785  15.998   4.434 -1.3339 -0.1355  0.4424
 6970UDC     C676665   2.896  16.091   4.378 -0.6802  0.1814 -0.1009
 6970UDC     C776666   2.848  16.206   4.288 -1.0348 -0.3354  1.4809
 6970UDC     C876667   2.966  16.248   4.199  0.3696  0.0420  0.0234
 6970UDC     C976668   2.980  16.304   4.059 -0.5592 -0.9735 -0.0899
 6970UDC    C1076669   2.992  16.202   3.947 -1.0122 -0.0547 -0.3297
 6970UDC    C1176670   3.132  16.204   3.875 -0.7486 -0.3190 -0.3577
 6971UDC     C176671  11.794   3.952   4.891 -0.0067 -0.0421 -0.1575
 6971UDC     C276672  11.938   3.985   4.857 -0.1925  0.5030  0.5783
 6971UDC     C376673  11.966   3.934   4.713  0.9984 -0.5784  0.5774
 6971UDC     C476674  12.105   3.951   4.660 -1.8046  0.0349  0.4913
 6971UDC     C576675  12.187   3.821   4.624 -0.1989 -0.8867 -0.4689
 6971UDC     C676676  12.183   3.718   4.733  0.1267 -0.2669  0.6616
 6971UDC     C776677  12.294   3.613   4.710 -0.5368  0.2492 -0.0728
 6971UDC     C876678  12.326   3.518   4.826 -0.2379 -0.0143 -0.1289
 6971UDC     C976679  12.226   3.403   4.858 -0.4060  0.7462  0.3123
 6971UDC    C1076680  12.173   3.331   4.730 -0.0473  0.1827 -0.4949
 6971UDC    C1176681  12.107   3.197   4.745  0.3485 -0.4758 -0.1210
 6972UDC     C176682  11.374   1.145   1.336 -0.2312  0.1396 -1.4110
 6972UDC     C276683  11.405   1.089   1.481  0.0277 -1.2783 -1.0927
 6972UDC     C376684  11.544   1.081   1.533  0.6141  0.6313 -0.0058
 6972UDC     C476685  11.613   0.952   1.470  1.1086 -0.1807  0.7849
 6972UDC     C576686  11.747   0.981   1.395 -0.4485 -0.2952  0.4903
 6972UDC     C676687  11.857   1.030   1.496 -0.4365 -0.4735  0.7381
 6972UDC     C776688  11.991   1.056   1.418  0.8337  0.0862  0.8209
 6972UDC     C876689  12.103   1.115   1.501  0.1501  0.3479 -0.2178
 6972UDC     C976690  12.221   1.142   1.419 -0.5500  0.3118  0.5798
 6972UDC    C1076691  12.191   1.181   1.272 -0.4960 -0.7434 -0.0430
 6972UDC    C1176692  12.297   1.241   1.174 -0.3160  0.5324  0.1545
 6973UDC     C176693  16.462   5.115   1.574  0.6574 -0.5020  0.3637
 6973UDC     C276694  16.377   5.028   1.486 -0.4114 -0.4638 -0.1662
 6973UDC     C376695  16.334   4.901   1.554 -0.8501 -0.1171  0.6259
 6973UDC     C476696  16.288   4.794   1.450  0.1114 -0.2363  0.5176
 6973UDC     C576697  16.206   4.681   1.516  0.0402  1.2465 -0.0286
 6973UDC     C676698  16.276   4.631   1.642 -0.2838  0.5232  0.9600
 6973UDC     C776699  16.190   4.519   1.708  1.0273 -0.7269 -0.6550
 6973UDC     C876700  16.198   4.501   1.857 -0.4603  0.5926 -0.5376
 6973UDC     C976701  16.121   4.382   1.920  0.7948  0.5935  0.6006
 6973UDC    C1076702  16.174   4.319   2.045  0.3791  0.1654  0.5201
 6973UDC    C1176703  16.311   4.247   2.025 -0.7494 -1.7254 -0.5460
 6974UDC     C176704  10.192  12.080  12.726  0.4081 -0.2658 -0.4423
 6974UDC     C276705  10.243  12.031  12.867  0.2802  0.0904 -0.0249
 6974UDC     C376706  10.256  12.162  12.948  0.2655  1.2434  0.9697
 6974UDC     C476707  10.267  12.141  13.102 -0.5287  0.0189  0.9206
 6974UDC     C576708  10.156  12.057  13.167  0.7100 -0.4506  0.2980
 6974UDC     C676709  10.220  11.977  13.284  0.3167 -0.4231 -0.9800
 6974UDC     C776710  10.129  11.890  13.370  0.3580 -1.2952 -0.2565
 6974UDC     C876711  10.229  11.798  13.452  0.5546 -0.3479 -0.6606
 6974UDC     C976712  10.243  11.647  13.446  0.7775  0.2573  0.6828
 6974UDC    C1076713  10.381  11.621  13.508  0.8753  0.3762 -0.0322
 6974UDC    C1176714  10.406  11.697  13.645 -0.4120 -0.3867 -1.3603
 6975UDC     C176715   6.122  14.417   0.091  0.7904 -0.4133  0.6102
 6975UDC     C276716   6.259  14.356   0.137  0.7579 -0.0276 -0.4817
 6975UDC     C376717   6.238  14.214   0.204  1.4470 -1.1474 -0.4745
 6975UDC     C476718   6.135  14.136   0.122 -0.9760 -0.9304  0.1904
 6975UDC     C576719   6.063  14.018   0.184  0.1337  0.2257  0.2289
 6975UDC     C676720   6.161  13.913   0.250  0.2176 -0.7681  0.7075
 6975UDC     C776721   6.100  13.802   0.328  0.2738 -0.6875 -0.7142
 6975UDC     C876722   6.196  13.708   0.396  1.0220 -0.4255 -0.1559
 6975UDC     C976723   6.133  13.579   0.451  1.6206  0.0589 -1.1449
 6975UDC    C1076724   6.025  13.598   0.562 -0.8859 -0.4381  0.0548
 6975UDC    C1176725   5.981  13.457   0.606  0.3962 -0.0178  1.1701
 6976UDC     C176726   2.924  13.082   8.891 -0.2509 -0.1072  0.1739
 6976UDC     C276727   2.857  13.149   9.012  1.3139  0.0627 -0.6986
 6976UDC     C376728   2.713  13.203   8.993  0.7211  0.7718 -0.9967
 6976UDC     C476729   2.698  13.287   9.122  0.1483 -0.6990 -1.2202
 6976UDC     C576730   2.589  13.392   9.138  0.0570 -0.9495  0.9028
 6976UDC     C676731   2.563  13.435   9.281  1.0197  0.6030  0.6894
 6976UDC     C776732   2.432  13.394   9.341 -0.0226  0.6677  0.8904
 6976UDC     C876733   2.399  13.409   9.491 -0.0504 -0.2942 -0.6029
 6976UDC     C976734   2.351  13.283   9.566  0.9145  0.2079  0.7151
 6976UDC    C1076735   2.222  13.208   9.528  0.0941  0.6813  0.7305
 6976UDC    C1176736   2.241  13.058   9.560 -0.2400  0.5404 -0.1022
 6977UDC     C176737   1.400   4.914   6.897 -0.4491 -0.3263 -0.1041
 6977UDC     C276738   1.436   4.857   7.037  0.0914 -1.0733 -0.2089
 6977UDC     C376739   1.572   4.885   7.106  0.3671 -0.6134  0.2932
 6977UDC     C476740   1.705   4.847   7.040 -0.5721  0.1390 -0.1557
 6977UDC     C576741   1.811   4.823   7.135 -0.1394  0.3371 -0.3624
 6977UDC     C676742   1.921   4.732   7.068  1.4267 -0.7524 -0.2531
 6977UDC     C776743   2.001   4.802   6.954  0.8345 -0.4808 -1.1099
 6977UDC     C876744   2.067   4.702   6.860 -0.3273 -0.2471  0.2572
 6977UDC     C976745   2.169   4.767   6.776 -0.2353  0.5529 -0.7278
 6977UDC    C1076746   2.115   4.814   6.638 -0.3304  0.5088 -0.8394
 6977UDC    C1176747   2.213   4.907   6.575 -0.1545 -1.0839 -0.2760
 6978UDC     C176748   5.366  19.807   5.895  0.6628 -0.4951 -0.4826
 6978UDC     C276749   5.445  19.700   5.831  0.4590  0.2246 -0.7515
 6978UDC     C376750   5.592  19.676   5.864  1.1737 -0.6073 -0.3947
 6978UDC     C476751   5.622  19.580   5.981 -0.6415  0.2478  1.1480
 6978UDC     C576752   5.719  19.636   6.092 -0.5822 -0.4079  0.1894
 6978UDC     C676753   5.621  19.712   6.183 -0.8439 -0.6863  0.7180
 6978UDC     C776754   5.696  19.809   6.277 -0.0608 -0.7184 -0.4058
 6978UDC     C876755   5.618  19.860   6.391  0.9259 -0.9134  0.9537
 6978UDC     C976756   5.664  19.986   6.463  0.1436  1.5425  0.6853
 6978UDC    C1076757   5.758  19.946   6.576 -0.1922  0.6757 -0.0867
 6978UDC    C1176758   5.704  19.862   6.690 -0.2966  0.5912 -0.6457
 6979UDC     C176759   3.061  13.005  11.935 -0.4417  0.5281  0.9973
 6979UDC     C276760   3.109  12.919  12.060 -1.0353 -0.0698  0.5872
 6979UDC     C376761   3.249  12.921  12.107 -0.7150  0.1723  0.7337
 6979UDC     C476762   3.275  12.794  12.186  0.2125  0.1821  0.2287
 6979UDC     C576763   3.308  12.831  12.324 -0.1509  0.2035 -0.2558
 6979UDC     C676764   3.199  12.922  12.407 -0.4502  0.6761 -1.0910
 6979UDC     C776765   3.254  12.991  12.533  0.6956  0.8653  0.4504
 6979UDC     C876766   3.364  13.089  12.487 -0.8503 -0.5025 -1.1266
 6979UDC     C976767   3.328  13.226  12.436 -0.0727 -0.6141  0.1581
 6979UDC    C1076768   3.435  13.327  12.397 -0.5616  0.0140  0.3271
 6979UDC    C1176769   3.537  13.392  12.495 -0.2493  1.6031 -0.5312
 6980UDC     C176770   4.513   5.492   7.927  0.7389 -0.3169 -0.8461
 6980UDC     C276771   4.428   5.608   7.988 -0.6919  1.0390  0.2906
 6980UDC     C376772   4.314   5.570   8.085 -0.2266  0.2650  0.3045
 6980UDC     C476773   4.204   5.475   8.026  1.1328 -0.6242 -0.4604
 6980UDC     C576774   4.081   5.425   8.108 -0.6666  0.4418 -0.0842
 6980UDC     C676775   3.978   5.354   8.015  0.9542  0.8544 -0.6561
 6980UDC     C776776   3.946   5.211   8.058 -0.9418 -0.0958  0.7598
 6980UDC     C876777   3.834   5.163   7.962  0.1932  0.6885 -0.2438
 6980UDC     C976778   3.767   5.031   8.006 -1.2991 -0.5442 -0.0695
 6980UDC    C1076779   3.779   5.015   8.152 -0.0729  0.7939  0.2443
 6980UDC    C1176780   3.701   4.900   8.218  0.3171  0.2730  0.9350
 6981UDC     C176781   7.336   7.399  14.235 -0.3694 -0.0331  0.2136
 6981UDC     C276782   7.354   7.516  14.132  0.4612  1.0959 -0.4244
 6981UDC     C376783   7.504   7.555  14.138 -0.1948  1.2824 -0.7241
 6981UDC     C476784   7.583   7.460  14.045 -2.1315 -1.1567  0.3950
 6981UDC     C576785   7.742   7.484  14.048  0.5654  0.0063 -0.3045
 6981UDC     C676786   7.795   7.481  14.190  1.4452  0.4261 -0.5597
 6981UDC     C776787   7.943   7.496  14.223 -0.6536 -0.0176 -0.1362
 6981UDC     C876788   8.009   7.627  14.167 -0.4280  0.1256 -0.9662
 6981UDC     C976789   8.157   7.635  14.195 -0.2064  0.8568  0.0234
 6981UDC    C1076790   8.251   7.759  14.161  1.1530  0.4834 -0.2669
 6981UDC    C1176791   8.293   7.800  14.016 -0.4088  0.3291 -0.3956
 6982UDC     C176792   4.370   9.971   8.494  0.1203  0.6224 -0.0002
 6982UDC     C276793   4.455   9.865   8.571 -0.1734  0.2702 -0.4485
 6982UDC     C376794   4.469   9.718   8.523 -0.8511  0.1663  0.5376
 6982UDC     C476795   4.603   9.646   8.553  0.2548  0.7519  1.0730
 6982UDC     C576796   4.720   9.680   8.457 -1.0680 -1.1416  0.1500
 6982UDC     C676797   4.862   9.612   8.456 -0.4107 -0.2406  0.2841
 6982UDC     C776798   4.948   9.691   8.348 -0.1412  0.2556  0.0909
 6982UDC     C876799   4.931   9.657   8.200  0.4791 -0.4314 -0.0286
 6982UDC     C976800   4.953   9.761   8.089 -0.5237 -0.4513 -0.5283
 6982UDC    C1076801   4.808   9.817   8.089  0.0478 -0.4952  0.7430
 6982UDC    C1176802   4.698   9.721   8.046 -0.9725 -0.8974  0.2204
 6983UDC     C176803   3.470  14.990  16.797 -0.3599  0.6907  0.6477
 6983UDC     C276804   3.425  14.872  16.887  0.0386 -0.7342  0.3842
 6983UDC     C376805   3.320  14.775  16.822  0.0679  0.3221 -0.3689
 6983UDC     C476806   3.258  14.675  16.924 -1.0646  0.0059  0.5230
 6983UDC     C576807   3.177  14.550  16.901 -0.6022  0.1947  0.1464
 6983UDC     C676808   3.035  14.546  16.961 -1.2600  0.5046 -0.2602
 6983UDC     C776809   2.956  14.654  16.895 -0.7687  0.2621  0.1069
 6983UDC     C876810   2.945  14.679  16.745 -0.0138 -0.7980 -0.4154
 6983UDC     C976811   2.864  14.790  16.692  0.6094 -1.0069  0.1084
 6983UDC    C1076812   2.932  14.932  16.727  0.9790  0.1586 -0.1528
 6983UDC    C1176813   3.030  14.991  16.628  0.8309 -0.4838 -0.0604
 6984UDC     C176814  13.287  10.075  12.547  0.4165  0.2227  0.3740
 6984UDC     C276815  13.224   9.997  12.657  0.4250  0.1509  0.0354
 6984UDC     C376816  13.077  10.019  12.682  0.1455 -0.8334 -0.2876
 6984UDC     C476817  13.036   9.929  12.794  0.3953 -0.7100 -0.5860
 6984UDC     C576818  12.890   9.968  12.840 -1.0697 -0.3900  0.4977
 6984UDC     C676819  12.782   9.902  12.761  0.3923  0.1589  0.1787
 6984UDC     C776820  12.656   9.966  12.813  0.1202 -0.5140  0.8713
 6984UDC     C876821  12.556   9.985  12.696  0.4805  0.9887  0.2244
 6984UDC     C976822  12.417  10.041  12.729 -0.4167  0.2793  0.8336
 6984UDC    C1076823  12.363  10.117  12.607 -0.3807  0.0812  0.3821
 6984UDC    C1176824  12.377  10.042  12.474  0.1068 -0.1463 -0.5768
 6985UDC     C176825   8.525   8.195  10.691 -0.7920  0.0202 -0.7710
 6985UDC     C276826   8.395   8.136  10.753 -0.5310  0.5852 -0.2470
 6985UDC     C376827   8.422   7.996  10.797 -0.3431  0.7806  0.6981
 6985UDC     C476828   8.402   7.895  10.679  0.5070  0.1175 -0.1719
 6985UDC     C576829   8.471   7.760  10.694  0.0353 -0.1427  0.3448
 6985UDC     C676830   8.619   7.795  10.715  0.0302 -1.1680 -0.0441
 6985UDC     C776831   8.730   7.696  10.697  0.0146 -1.0791 -1.1012
 6985UDC     C876832   8.862   7.777  10.668  0.1113  0.2239  0.1865
 6985UDC     C976833   8.999   7.709  10.634 -0.5242  0.2205 -0.4292
 6985UDC    C1076834   9.111   7.788  10.561 -0.1864  0.3676 -0.4239
 6985UDC    C1176835   9.184   7.706  10.459  0.0383 -0.2597 -1.4258
 6986UDC     C176836   4.266  17.269   6.573  0.7197 -0.4210 -0.6170
 6986UDC     C276837   4.326  17.161   6.482 -0.9203  0.0784 -0.1917
 6986UDC     C376838   4.260  17.018   6.488 -0.4523 -0.4629 -0.1200
 6986UDC     C476839   4.300  16.930   6.364 -1.2768  0.3311 -0.3599
 6986UDC     C576840   4.280  17.003   6.228 -1.1895  0.2865 -0.5940
 6986UDC     C676841   4.337  16.939   6.103 -0.5923 -0.1433  0.0565
 6986UDC     C776842   4.252  16.835   6.039  1.1554 -0.3364 -0.1233
 6986UDC     C876843   4.295  16.780   5.898  0.4696  1.2986 -0.8691
 6986UDC     C976844   4.241  16.872   5.781  0.0861 -0.0048 -0.0743
 6986UDC    C1076845   4.090  16.887   5.795 -0.0832 -0.2062  0.3685
 6986UDC    C1176846   4.009  16.875   5.670  0.5419 -0.2080  0.1397
 6987UDC     C176847   0.846  13.294   1.447 -0.8590  0.9547 -0.4527
 6987UDC     C276848   0.742  13.408   1.439 -0.6172  0.5032 -0.3353
 6987UDC     C376849   0.765  13.487   1.306  1.3066 -0.1604 -0.2905
 6987UDC     C476850   0.688  13.407   1.190  0.5798  0.4015  0.2281
 6987UDC     C576851   0.537  13.410   1.216  0.1145 -0.3059 -0.2653
 6987UDC     C676852   0.441  13.321   1.136 -0.7205 -0.8867 -0.0387
 6987UDC     C776853   0.483  13.264   0.997 -1.1608 -0.8738  0.3475
 6987UDC     C876854   0.364  13.224   0.902 -0.1732  0.0861  0.7946
 6987UDC     C976855   0.397  13.167   0.759 -0.2340 -0.1037  0.1415
 6987UDC    C1076856   0.277  13.111   0.673 -0.9595  0.0637 -0.3112
 6987UDC    C1176857   0.342  13.041   0.556 -0.0517  0.3200  0.4824
 6988UDC     C176858  12.843   3.197  16.195  0.2998 -0.2690 -0.3506
 6988UDC     C276859  12.927   3.070  16.229  0.4136 -0.3457  0.6734
 6988UDC     C376860  13.053   3.113  16.307  1.0904  0.8474 -0.3903
 6988UDC     C476861  13.166   3.020  16.252  0.6702 -0.2515 -0.1404
 6988UDC     C576862  13.308   3.050  16.315 -1.0861 -0.3269  0.1144
 6988UDC     C676863  13.339   3.194  16.316  0.9678  0.1109 -0.0919
 6988UDC     C776864  13.476   3.222  16.380 -0.2005  0.2385 -0.1154
 6988UDC     C876865  13.616   3.174  16.326  0.7594 -1.5832 -0.4280
 6988UDC     C976866  13.723   3.196  16.430 -0.4965 -0.2898  0.9947
 6988UDC    C1076867  13.867   3.135  16.412  0.1526 -0.6002 -0.8414
 6988UDC    C1176868  13.861   2.986  16.419  0.3606  0.4126  0.5308
 6989UDC     C176869   9.620  16.858   1.244 -0.0039 -0.1101  0.8022
 6989UDC     C276870   9.683  16.820   1.382  0.2115 -0.3241 -0.0095
 6989UDC     C376871   9.577  16.816   1.497 -0.9125  0.0814  0.3174
 6989UDC     C476872   9.437  16.750   1.470  1.6985  1.5332 -0.3922
 6989UDC     C576873   9.330  16.772   1.583 -0.5166 -0.6320  0.6877
 6989UDC     C676874   9.341  16.690   1.715 -0.1885  0.4568 -0.6164
 6989UDC     C776875   9.214  16.701   1.802 -0.9005  0.2602 -0.7881
 6989UDC     C876876   9.195  16.601   1.917  0.2303 -0.6014 -0.3192
 6989UDC     C976877   9.253  16.650   2.053  0.1127  0.1931  0.4212
 6989UDC    C1076878   9.226  16.570   2.183 -0.7973  0.4406 -0.4471
 6989UDC    C1176879   9.323  16.445   2.194 -0.0781  0.6098  1.2231
 6990UDC     C176880  17.133   3.630  18.056  0.9584 -0.0208  0.5862
 6990UDC     C276881  17.077   3.487  18.082 -0.2449 -0.0286  0.3638
 6990UDC     C376882  17.182   3.384  18.038 -0.1926  0.4227  0.4048
 6990UDC     C476883  17.205   3.376  17.884 -1.1501  0.9055  0.7807
 6990UDC     C576884  17.322   3.287  17.827 -0.1699  0.2157 -0.2431
 6990UDC     C676885  17.358   3.290  17.680  0.1855 -0.4083  0.1463
 6990UDC     C776886  17.511   3.271  17.692 -0.1627  0.3012  0.1929
 6990UDC     C876887  17.564   3.261  17.552  1.3065  0.4850 -0.5441
 6990UDC     C976888  17.532   3.394  17.486 -1.9684  0.4373 -0.1607
 6990UDC    C1076889  17.583   3.406  17.343  0.0508 -0.0647  0.9710
 6990UDC    C1176890  17.495   3.328  17.239 -0.9971 -0.7436 -0.3338
 6991UDC     C176891   7.359  15.985   3.353  1.0181  0.2420 -0.2473
 6991UDC     C276892   7.263  16.099   3.410  0.3470  0.1357 -0.4315
 6991UDC     C376893   7.336  16.160   3.532 -0.9981  0.7459  0.8256
 6991UDC     C476894   7.383  16.292   3.473 -0.0013  0.2722 -0.1244
 6991UDC     C576895   7.524  16.354   3.511  0.2917  0.3030  0.2176
 6991UDC     C676896   7.562  16.476   3.424  0.2362 -0.9081  0.3723
 6991UDC     C776897   7.454  16.594   3.439  0.2571 -0.2106 -0.4460
 6991UDC     C876898   7.477  16.736   3.370 -0.4053  0.0395  0.9176
 6991UDC     C976899   7.595  16.809   3.445 -0.8663 -0.4780  0.6619
 6991UDC    C1076900   7.704  16.865   3.354  0.3227 -0.1658 -0.1701
 6991UDC    C1176901   7.844  16.851   3.411  0.0987 -0.1995 -1.3399
 6992UDC     C176902   6.881  15.750  18.125 -0.8939  0.5433  0.1106
 6992UDC     C276903   6.960  15.776  17.990  0.3396  0.6433 -0.8905
 6992UDC     C376904   7.089  15.689  17.965 -0.6365  0.3026 -0.3059
 6992UDC     C476905   7.044  15.551  17.912  0.5258  1.2734  1.0200
 6992UDC     C576906   7.156  15.444  17.915 -0.1853 -0.5844 -0.3402
 6992UDC     C676907   7.113  15.295  17.909 -0.5255 -0.0101  0.2262
 6992UDC     C776908   7.017  15.260  18.032  0.9115 -0.3135 -0.2354
 6992UDC     C876909   6.985  15.110  18.049 -0.3360 -0.3044 -0.7998
 6992UDC     C976910   6.919  15.080  18.188  0.4922  0.7247 -0.0707
 6992UDC    C1076911   6.856  14.944  18.196  0.5676  0.6925 -0.4541
 6992UDC    C1176912   6.952  14.822  18.201 -0.5369 -1.0267 -0.1862
 6993UDC     C176913  18.817   9.646  10.020 -0.2663 -0.1801 -0.1984
 6993UDC     C276914  18.791   9.503  10.084  0.7166 -0.7549  0.7567
 6993UDC     C376915  18.653   9.450  10.118  0.3105 -0.5442  0.4364
 6993UDC     C476916  18.657   9.323  10.201 -0.1206  0.5617 -0.2881
 6993UDC     C576917  18.746   9.210  10.145 -0.0443 -0.4637  0.2951
 6993UDC     C676918  18.701   9.151  10.010 -0.5760  0.1187  0.2368
 6993UDC     C776919  18.746   9.005   9.989  0.4587 -0.3152  1.2683
 6993UDC     C876920  18.897   8.991   9.960 -0.0941  1.2584  0.3542
 6993UDC     C976921  18.939   9.112   9.878  0.4453  0.3553 -0.1277
 6993UDC    C1076922  19.087   9.151   9.857  0.0157  1.0050 -0.1580
 6993UDC    C1176923  19.123   9.278   9.941  0.1697  0.2954  0.0957
 6994UDC     C176924   8.126  15.136  11.104  0.2866  0.6254 -0.7379
 6994UDC     C276925   8.071  15.016  11.019  0.1676  0.1241 -0.3521
 6994UDC     C376926   8.184  14.962  10.935  1.3736 -0.9868 -0.3815
 6994UDC     C476927   8.277  14.852  10.999  0.0090 -0.0031  0.3151
 6994UDC     C576928   8.363  14.880  11.128 -0.4709  0.1828 -0.2962
 6994UDC     C676929   8.455  14.763  11.189  0.1164 -0.5156  0.1010
 6994UDC     C776930   8.550  14.696  11.097 -0.7727  0.4893 -0.4960
 6994UDC     C876931   8.658  14.613  11.166 -1.1221 -0.1686 -0.3239
 6994UDC     C976932   8.741  14.520  11.074  0.7040 -0.7422 -0.2285
 6994UDC    C1076933   8.851  14.582  10.989 -0.3880 -0.4120 -0.2953
 6994UDC    C1176934   8.953  14.661  11.079  0.5036 -0.6355 -0.1787
 6995UDC     C176935  11.132   5.535   8.788  1.6492 -0.4482 -0.5260
 6995UDC     C276936  11.049   5.660   8.772  0.3031 -0.6170 -1.0518
 6995UDC     C376937  10.911   5.664   8.697 -0.2194  0.8114  0.5714
 6995UDC     C476938  10.807   5.753   8.762 -0.7663 -0.9552 -0.3899
 6995UDC     C576939  10.694   5.785   8.674  0.0401  0.1101  0.2644
 6995UDC     C676940  10.569   5.689   8.675  0.1916  0.4181 -0.7953
 6995UDC     C776941  10.506   5.664   8.821 -0.3694  0.5776  0.5180
 6995UDC     C876942  10.484   5.792   8.910 -0.2664  0.3370 -0.4261
 6995UDC     C976943  10.414   5.921   8.848 -0.9053  0.2285 -0.6631
 6995UDC    C1076944  10.424   6.045   8.934 -0.1025  0.5005  1.1010
 6995UDC    C1176945  10.565   6.110   8.924 -0.3083  1.3912  0.0503
 6996UDC     C176946   9.771  15.578  12.535  0.2461  1.2608 -0.3197
 6996UDC     C276947   9.637  15.494  12.529  0.0429 -0.4506  0.3732
 6996UDC     C376948   9.496  15.562  12.526 -0.0742 -0.1127  0.1149
 6996UDC     C476949   9.376  15.468  12.515 -0.1901 -0.5882 -1.0098
 6996UDC     C576950   9.422  15.333  12.585  0.4855 -0.4351  0.2839
 6996UDC     C676951   9.333  15.207  12.573 -0.1249 -0.2515  0.2773
 6996UDC     C776952   9.398  15.081  12.633  1.6139  0.5272  0.3433
 6996UDC     C876953   9.497  15.030  12.525  0.2645 -0.5505 -0.5937
 6996UDC     C976954   9.439  14.939  12.413  0.5729 -0.3239 -0.3158
 6996UDC    C1076955   9.537  14.877  12.309  0.3202  0.1748 -0.6330
 6996UDC    C1176956   9.651  14.808  12.390  0.6133 -0.6851  0.3891
 6997UDC     C176957   0.887  18.381  11.099  0.6940 -1.0796  1.0155
 6997UDC     C276958   0.904  18.290  11.222  0.0473 -0.6217 -0.7593
 6997UDC     C376959   0.791  18.302  11.325  0.2478  0.0340  0.0827
 6997UDC     C476960   0.833  18.228  11.445 -0.7140  0.3225 -1.0995
 6997UDC     C576961   0.765  18.276  11.571  0.1650 -1.0236 -0.9540
 6997UDC     C676962   0.768  18.184  11.692  0.5765  1.0901 -0.1467
 6997UDC     C776963   0.877  18.187  11.793 -0.4068 -0.4295  0.0208
 6997UDC     C876964   0.847  18.130  11.935  0.7128 -0.9122 -0.6510
 6997UDC     C976965   0.946  18.154  12.053  0.3170 -0.9120 -0.8743
 6997UDC    C1076966   0.906  18.123  12.189  0.8073  1.0456 -1.1696
 6997UDC    C1176967   1.023  18.124  12.283 -0.1215  0.0263 -1.3596
 6998UDC     C176968  15.620  19.278   1.086  0.4189 -0.1438  1.2884
 6998UDC     C276969  15.670  19.144   1.132 -0.3087  0.5580 -0.9613
 6998UDC     C376970  15.786  19.147   1.235  1.2865 -0.2183 -0.0494
 6998UDC     C476971  15.851  19.015   1.282 -0.0769  0.3772  0.3426
 6998UDC     C576972  15.879  19.013   1.429 -0.5477  0.3139  0.1008
 6998UDC     C676973  15.945  18.890   1.496  0.2088 -0.9966  0.4413
 6998UDC     C776974  15.970  18.908   1.649  0.4072  0.2741  0.7240
 6998UDC     C876975  16.061  19.035   1.659  1.1352 -0.1328 -0.4593
 6998UDC     C976976  16.211  19.047   1.617 -0.5397  0.2387 -1.0061
 6998UDC    C1076977  16.312  18.945   1.680 -0.9133  0.2884  1.0007
 6998UDC    C1176978  16.326  18.955   1.834  0.0596 -0.5090  0.2098
 6999UDC     C176979  10.272   1.815  10.701 -1.2577 -0.3573 -0.2308
 6999UDC     C276980  10.389   1.728  10.647 -0.4394 -0.1105 -0.5101
 6999UDC     C376981  10.347   1.607  10.554 -1.5093  0.0780 -0.6071
 6999UDC     C476982  10.282   1.489  10.627  0.4627 -0.1185  0.6362
 6999UDC     C576983  10.376   1.396  10.706  0.5130 -0.7052 -0.0027
 6999UDC     C676984  10.305   1.293  10.792 -0.5023 -0.0732 -1.1373
 6999UDC     C776985  10.194   1.356  10.886 -0.9555  0.0919  0.3383
 6999UDC     C876986  10.234   1.440  11.008  1.3528 -0.1199  1.0609
 6999UDC     C976987  10.106   1.495  11.073 -0.7839  1.3318  0.1840
 6999UDC    C1076988  10.132   1.609  11.176  0.5221 -0.2925  0.2380
 6999UDC    C1176989  10.281   1.620  11.222  0.2273  0.1371  0.2021
 7000UDC     C176990   3.376   6.762  13.068 -0.2616  1.0080  0.2240
 7000UDC     C276991   3.519   6.812  13.114 -0.2551  0.2472  0.7132
 7000UDC     C376992   3.626   6.709  13.146 -0.0183  0.5684  0.5848
 7000UDC     C476993   3.701   6.654  13.028 -0.0384 -0.1141 -0.7275
 7000UDC     C576994   3.816   6.563  13.056  0.2854  0.9184 -0.2625
 7000UDC     C676995   3.847   6.489  12.921 -1.0769 -0.0467  0.1720
 7000UDC     C776996   3.959   6.388  12.918 -0.3117 -0.0043  0.6856
 7000UDC     C876997   4.036   6.368  12.791 -0.5656  0.5185  0.0635
 7000UDC     C976998   4.153   6.273  12.839  0.4220 -0.1271  0.1369
 7000UDC    C1076999   4.289   6.337  12.859  0.0279  0.3803  0.0893
 7000UDC    C1177000   4.363   6.370  12.732 -0.2162  0.3527  0.2659
 7001UDC     C177001  18.728  15.586  18.089 -0.1331 -0.5064 -1.0157
 7001UDC     C277002  18.574  15.613  18.091 -0.0405 -0.1936  0.7171
 7001UDC     C377003  18.501  15.667  18.211 -0.0436 -0.0052  0.3380
 7001UDC     C477004  18.527  15.819  18.235 -0.0625  0.4912  0.1980
 7001UDC     C577005  18.441  15.904  18.333  0.2789  0.0865 -1.3429
 7001UDC     C677006  18.286  15.914  18.312  0.1748 -0.1308 -0.7007
 7001UDC     C777007  18.201  15.896  18.181 -0.6144 -0.9359 -1.1280
 7001UDC     C877008  18.046  15.889  18.193 -1.1440 -0.4603  0.6406
 7001UDC     C977009  17.999  15.749  18.170 -0.4636  1.3006 -1.0323
 7001UDC    C1077010  17.853  15.734  18.175  0.9582  0.3767 -0.1864
 7001UDC    C1177011  17.776  15.760  18.309 -0.7295 -0.2252  0.1199
 7002UDC     C177012   0.378   5.162   7.543  0.4724 -1.7145 -0.4521
 7002UDC     C277013   0.235   5.135   7.604 -0.2968  1.2015 -0.0396
 7002UDC     C377014   0.221   4.982   7.643  0.1104 -0.9188 -0.2990
 7002UDC     C477015   0.227   4.897   7.511  0.5802  0.0942  0.1703
 7002UDC     C577016   0.223   4.741   7.519  0.3025  0.0805  0.8684
 7002UDC     C677017   0.087   4.673   7.541  0.8842 -0.4222  0.1767
 7002UDC     C777018   0.068   4.525   7.512  0.4132  0.2273  0.7340
 7002UDC     C877019  -0.082   4.477   7.510 -0.6780 -0.0837 -0.4335
 7002UDC     C977020  -0.131   4.396   7.628 -0.7300  0.3149  0.0994
 7002UDC    C1077021  -0.266   4.337   7.600  0.5644 -0.0925 -0.3861
 7002UDC    C1177022  -0.383   4.359   7.708 -0.8816  0.8272  0.5539
 7003UDC     C177023  12.192  12.653  10.322 -0.2633 -0.7689 -0.5988
 7003UDC     C277024  12.191  12.501  10.321  0.8559 -0.1101  0.4245
 7003UDC     C377025  12.079  12.431  10.247  0.4560 -0.5096 -1.3790
 7003UDC     C477026  11.949  12.469  10.323 -0.2200  0.6528 -0.3219
 7003UDC     C577027  11.827  12.379  10.273  0.5110  0.7363 -0.8518
 7003UDC     C677028  11.693  12.402  10.341 -0.5934  0.0969  0.4333
 7003UDC     C777029  11.623  12.519  10.282  0.0040 -0.6752  0.4500
 7003UDC     C877030  11.485  12.519  10.355  0.6467  0.3320  0.6093
 7003UDC     C977031  11.403  12.414  10.280  0.2242 -1.2004  0.9596
 7003UDC    C1077032  11.261  12.406  10.323  0.4349 -0.7464 -1.1058
 7003UDC    C1177033  11.263  12.317  10.442 -0.0282  0.2647 -0.0959
 7004UDC     C177034  15.499   0.596  19.856 -0.1172  0.6727 -0.9182
 7004UDC     C277035  15.649   0.581  19.869 -0.3037  0.6244  0.9858
 7004UDC     C377036  15.722   0.543  19.732  0.6852 -0.5074  0.5955
 7004UDC     C477037  15.649   0.431  19.667 -0.5395  1.2225 -0.7238
 7004UDC     C577038  15.736   0.357  19.566 -0.5674  0.9677  1.0376
 7004UDC     C677039  15.683   0.208  19.545  0.6629 -1.8091  0.7889
 7004UDC     C777040  15.527   0.199  19.542 -0.1958  1.4430 -0.1809
 7004UDC     C877041  15.465   0.056  19.555 -0.0844 -0.4638  0.3979
 7004UDC     C977042  15.317   0.040  19.563  0.9157 -0.7262 -0.7698
 7004UDC    C1077043  15.254  -0.092  19.533  0.4377  0.4350 -0.8791
 7004UDC    C1177044  15.108  -0.094  19.533  0.6428 -0.2319 -0.4260
 7005UDC     C177045  11.240  10.580  19.727  0.8378 -0.7297  1.1341
 7005UDC     C277046  11.152  10.678  19.637  1.8926  0.7078  0.2810
 7005UDC     C377047  11.194  10.690  19.493 -0.3557 -0.2971 -0.2235
 7005UDC     C477048  11.187  10.557  19.428 -0.1109 -0.5669  0.1166
 7005UDC     C577049  11.248  10.568  19.282 -1.1545  0.6468  0.2347
 7005UDC     C677050  11.304  10.429  19.245 -0.2648 -0.7527  0.0548
 7005UDC     C777051  11.325  10.415  19.087  0.0254 -0.0805  0.1380
 7005UDC     C877052  11.197  10.429  18.999  0.9952 -0.1825 -0.2125
 7005UDC     C977053  11.130  10.315  18.909 -0.2276 -0.4367  0.0670
 7005UDC    C1077054  11.222  10.242  18.818 -0.3845  0.6934  0.4895
 7005UDC    C1177055  11.139  10.129  18.747 -0.3839  0.0341  0.4592
 7006UDC     C177056   1.248   6.016   5.688 -0.0065  0.5485  0.0038
 7006UDC     C277057   1.176   6.117   5.781 -0.1826 -1.0624  1.2556
 7006UDC     C377058   1.053   6.186   5.727 -1.0642  0.1117  0.6348
 7006UDC     C477059   1.105   6.282   5.612  0.0302 -0.2387  0.7029
 7006UDC     C577060   0.979   6.353   5.567 -0.6795 -0.1582  0.8665
 7006UDC     C677061   0.998   6.371   5.416 -0.2113  0.5120  0.2127
 7006UDC     C777062   0.959   6.517   5.375  0.8788  1.1724  0.1581
 7006UDC     C877063   0.807   6.535   5.388  0.4893 -0.1799  0.5901
 7006UDC     C977064   0.719   6.435   5.304 -0.7160 -1.2164  0.5607
 7006UDC    C1077065   0.578   6.434   5.343  0.0318  0.6167  0.6066
 7006UDC    C1177066   0.507   6.567   5.336  0.1879  0.5742 -0.4185
 7007UDC     C177067  15.090   0.681   5.739 -0.2667 -0.5958  0.1645
 7007UDC     C277068  15.046   0.560   5.659  0.9561 -0.3793  0.1732
 7007UDC     C377069  15.018   0.594   5.508  0.4017  1.0926 -0.8944
 7007UDC     C477070  15.116   0.592   5.397 -0.2362  0.6127  0.1405
 7007UDC     C577071  15.121   0.448   5.341 -0.8845 -0.4435  0.5211
 7007UDC     C677072  15.274   0.416   5.339 -0.3079  0.0848  0.8302
 7007UDC     C777073  15.317   0.275   5.294 -1.3111  0.8798  0.3399
 7007UDC     C877074  15.236   0.235   5.161  0.6839 -0.4269 -0.3269
 7007UDC     C977075  15.328   0.241   5.032 -1.3819 -0.4838  0.1766
 7007UDC    C1077076  15.278   0.257   4.886  0.1138 -0.4552 -0.5618
 7007UDC    C1177077  15.378   0.182   4.791 -0.0253 -0.1578 -1.5479
 7008UDC     C177078   1.513  14.683  19.267  0.0510 -0.0926  0.7328
 7008UDC     C277079   1.664  14.686  19.245  0.1051 -0.3427 -0.5271
 7008UDC     C377080   1.685  14.813  19.162  0.8170 -0.3495 -0.2882
 7008UDC     C477081   1.814  14.827  19.079 -0.2930 -0.5685  0.1198
 7008UDC     C577082   1.896  14.947  19.115 -0.9514 -0.2061 -1.1887
 7008UDC     C677083   1.986  15.010  19.005  0.0863  0.3679 -0.0430
 7008UDC     C777084   2.054  15.136  19.048 -0.1808 -0.4521 -0.2747
 7008UDC     C877085   2.123  15.212  18.931 -0.9726  0.8733  0.0411
 7008UDC     C977086   2.201  15.346  18.962 -1.7999 -0.4102  1.0760
 7008UDC    C1077087   2.321  15.349  18.862 -0.3926 -0.6780 -0.8840
 7008UDC    C1177088   2.449  15.433  18.903 -1.3924  0.1127  0.3283
 7009UDC     C177089  18.141   6.394  11.531  0.4837  0.2075 -0.7432
 7009UDC     C277090  18.072   6.285  11.439 -0.2366  0.0640 -0.4840
 7009UDC     C377091  18.058   6.131  11.472 -0.6796  0.3401 -0.0424
 7009UDC     C477092  18.034   6.112  11.619  0.5009  0.8147 -0.0182
 7009UDC     C577093  17.996   5.961  11.652  0.0996 -0.0487 -0.1941
 7009UDC     C677094  17.960   5.933  11.799  0.3690  0.0838 -0.6332
 7009UDC     C777095  17.994   5.790  11.830 -0.8116  0.2354  0.6400
 7009UDC     C877096  18.076   5.779  11.960 -0.4169  0.1726  0.1692
 7009UDC     C977097  18.114   5.625  11.952  0.0115  0.9681  0.4839
 7009UDC    C1077098  18.160   5.585  12.091 -0.0681 -0.5395 -0.0798
 7009UDC    C1177099  18.208   5.441  12.108 -0.3219 -0.1568  0.3488
 7010UDC     C177100   2.936   2.288  11.677 -0.5115 -0.5579 -1.0323
 7010UDC     C277101   2.816   2.263  11.776  0.0157  0.1173  1.1790
 7010UDC     C377102   2.748   2.128  11.754  0.0470 -0.1854  0.4773
 7010UDC     C477103   2.759   2.039  11.882 -0.0371 -0.5782 -0.2833
 7010UDC     C577104   2.635   2.070  11.978 -0.1302 -0.4546  0.5140
 7010UDC     C677105   2.521   1.958  11.996 -0.7932 -0.7542  0.1765
 7010UDC     C777106   2.484   1.910  11.852  1.1400  0.5787  0.1656
 7010UDC     C877107   2.342   1.853  11.822  0.1494  0.7172  0.5779
 7010UDC     C977108   2.277   1.776  11.946 -0.7464  0.1816  0.3475
 7010UDC    C1077109   2.135   1.728  11.921  2.0322 -0.0142  0.4572
 7010UDC    C1177110   2.003   1.765  11.987 -0.0076  0.3148  0.5889
 7011UDC     C177111  12.162  10.945  10.970 -1.1651 -0.0957 -0.3880
 7011UDC     C277112  12.310  10.959  11.015  0.4988 -0.9084  0.1964
 7011UDC     C377113  12.371  11.093  10.983  0.0114 -0.5347  0.8443
 7011UDC     C477114  12.402  11.108  10.830 -0.2956  0.1218  0.2345
 7011UDC     C577115  12.519  11.190  10.776  0.1194 -0.6871 -0.4837
 7011UDC     C677116  12.557  11.165  10.629 -0.3548  0.6116  0.4032
 7011UDC     C777117  12.597  11.023  10.589 -0.1863  0.2757 -0.1593
 7011UDC     C877118  12.648  11.011  10.443 -0.2665  0.9214  0.2961
 7011UDC     C977119  12.523  11.027  10.351  0.2162 -0.4986  0.3152
 7011UDC    C1077120  12.508  10.923  10.244 -0.6488  0.8179  0.0417
 7011UDC    C1177121  12.383  10.931  10.150 -0.6949 -0.1531 -0.1196
 7012UDC     C177122   7.989  12.574   1.123  0.5462 -0.4821  0.1185
 7012UDC     C277123   8.030  12.428   1.119  0.4639  0.0001  0.1964
 7012UDC     C377124   8.179  12.417   1.093 -0.6558 -0.3100  0.4316
 7012UDC     C477125   8.219  12.271   1.136  0.8091 -0.4766  0.1231
 7012UDC     C577126   8.376  12.247   1.128 -0.7531  0.3341  0.3554
 7012UDC     C677127   8.398  12.091   1.132 -1.0664  0.8223 -0.0529
 7012UDC     C777128   8.282  12.015   1.211 -0.8869  0.1628 -0.5982
 7012UDC     C877129   8.327  11.872   1.198  0.9357 -0.2752  0.3887
 7012UDC     C977130   8.232  11.779   1.276 -0.4460  0.4474 -0.4211
 7012UDC    C1077131   8.257  11.628   1.265  1.2661  0.1186 -1.0280
 7012UDC    C1177132   8.137  11.532   1.305 -1.4199  0.4321  0.1348
 7013UDC     C177133  19.220  15.784  19.161 -0.0082  0.1756  0.3928
 7013UDC     C277134  19.286  15.802  19.303 -0.9244 -0.3383 -0.1074
 7013UDC     C377135  19.436  15.842  19.277  1.4499 -0.0402  0.3906
 7013UDC     C477136  19.500  15.715  19.229 -0.0749 -0.2599  0.1084
 7013UDC     C577137  19.654  15.720  19.219 -0.4052  0.5238  1.1220
 7013UDC     C677138  19.711  15.623  19.113 -0.7976 -0.6048 -0.3551
 7013UDC     C777139  19.779  15.507  19.188  0.5882  0.0855  0.5260
 7013UDC     C877140  19.916  15.527  19.244 -1.2247  0.3980  0.2137
 7013UDC     C977141  19.988  15.415  19.320  0.1692 -0.2549 -0.3476
 7013UDC    C1077142  19.930  15.405  19.462 -0.3855  0.2200 -0.0701
 7013UDC    C1177143  19.970  15.277  19.538 -0.4073 -0.7049 -0.4452
 7014UDC     C177144  16.059  19.622   3.561  0.1620  0.3177  0.8028
 7014UDC     C277145  16.012  19.550   3.690  0.6152 -0.3113 -0.8390
 7014UDC     C377146  16.061  19.625   3.824  0.7510  0.3821  1.0159
 7014UDC     C477147  15.991  19.559   3.944 -0.4038  0.8091 -0.4605
 7014UDC     C577148  16.030  19.625   4.076 -0.4873  0.2918 -0.1286
 7014UDC     C677149  16.173  19.583   4.131 -0.2256  0.6362 -0.0300
 7014UDC     C777150  16.254  19.676   4.217 -0.5820  0.1011  1.1158
 7014UDC     C877151  16.402  19.627   4.250 -0.3871 -1.3258 -0.1049
 7014UDC     C977152  16.494  19.618   4.131 -0.1894 -0.4986  0.7305
 7014UDC    C1077153  16.618  19.529   4.150 -0.5743  0.5813 -0.1727
 7014UDC    C1177154  16.643  19.428   4.034 -0.2071  0.3295 -0.0077
 7015UDC     C177155  16.539  10.188  17.940 -0.2982 -0.8152  0.4396
 7015UDC     C277156  16.402  10.160  18.004  0.1035  0.1856  0.4881
 7015UDC     C377157  16.421  10.108  18.148  0.4659 -0.0544  0.7000
 7015UDC     C477158  16.299  10.058  18.218 -0.2024 -0.1189 -0.7797
 7015UDC     C577159  16.348   9.987  18.343 -0.1456 -0.1502  0.9602
 7015UDC     C677160  16.400  10.086  18.446 -0.5433  0.2641  0.8250
 7015UDC     C777161  16.409  10.033  18.589 -1.0227 -0.5178 -0.6986
 7015UDC     C877162  16.501   9.916  18.631 -0.9951 -0.0260  0.5169
 7015UDC     C977163  16.510   9.902  18.783  0.7192 -0.3952  0.0218
 7015UDC    C1077164  16.619   9.793  18.823 -0.9366  0.2908  0.4699
 7015UDC    C1177165  16.638   9.795  18.980 -0.0977  1.2341  0.1613
 7016UDC     C177166  14.603  11.751   7.679  0.2009  0.8704  0.3447
 7016UDC     C277167  14.548  11.764   7.819  1.2673 -0.4380 -0.6589
 7016UDC     C377168  14.408  11.704   7.810  0.4849 -0.1666  0.3175
 7016UDC     C477169  14.319  11.747   7.926 -0.4480 -0.2574  0.3764
 7016UDC     C577170  14.213  11.858   7.904 -0.2016 -0.4705  0.1856
 7016UDC     C677171  14.115  11.850   8.019  0.2554 -0.4162  0.7828
 7016UDC     C777172  14.189  11.883   8.153  0.0301 -0.7961  0.0103
 7016UDC     C877173  14.103  11.863   8.279  0.1590 -1.2966 -0.9158
 7016UDC     C977174  14.167  11.916   8.411 -0.2407  0.8721  0.3210
 7016UDC    C1077175  14.302  11.845   8.421 -1.2140  0.6427  0.1965
 7016UDC    C1177176  14.369  11.853   8.555 -0.7011  1.1675 -0.5024
 7017UDC     C177177  12.815  19.601  11.324  0.3805 -0.2333 -0.6722
 7017UDC     C277178  12.850  19.623  11.178 -0.2917  0.4817 -0.3923
 7017UDC     C377179  12.842  19.763  11.119  1.1897 -0.7624  0.1623
 7017UDC     C477180  12.972  19.798  11.045  1.0780 -0.5491 -0.4087
 7017UDC     C577181  13.006  19.737  10.909 -0.2483 -0.6181 -0.1726
 7017UDC     C677182  12.891  19.741  10.799 -0.3084  0.0654 -0.1681
 7017UDC     C777183  12.911  19.807  10.663  0.1868 -0.0449  0.4803
 7017UDC     C877184  13.035  19.756  10.590  1.2181  0.9330  0.1554
 7017UDC     C977185  13.013  19.612  10.520  0.1812  0.0120 -0.7713
 7017UDC    C1077186  13.134  19.583  10.423 -0.0627 -0.0885 -1.8454
 7017UDC    C1177187  13.110  19.638  10.284 -0.8889  0.6632  0.1413
 7018UDC     C177188  11.863  18.976  12.140  0.4803  0.2945 -0.1728
 7018UDC     C277189  11.954  19.097  12.195 -0.1002 -0.1088  1.1481
 7018UDC     C377190  11.944  19.125  12.349  0.2119  0.3536 -0.1933
 7018UDC     C477191  11.812  19.179  12.402  1.2453  0.5787 -0.6979
 7018UDC     C577192  11.759  19.142  12.541  0.3488 -0.6256 -1.0051
 7018UDC     C677193  11.601  19.160  12.558 -0.0235 -0.1130 -0.8627
 7018UDC     C777194  11.501  19.094  12.470  0.6654 -0.2175  0.7921
 7018UDC     C877195  11.521  18.949  12.454 -0.5662  0.2503  0.5322
 7018UDC     C977196  11.497  18.886  12.587 -0.5622 -0.0102 -0.6912
 7018UDC    C1077197  11.353  18.907  12.639 -0.0059 -0.3033  0.1010
 7018UDC    C1177198  11.232  18.876  12.540 -0.6140  0.5163 -0.7904
 7019UDC     C177199  17.055  17.754   8.543  1.0386  0.8316 -0.6362
 7019UDC     C277200  16.961  17.879   8.542 -0.1481  0.5381 -0.3028
 7019UDC     C377201  16.963  17.974   8.665  0.0835  0.9242 -0.4553
 7019UDC     C477202  16.927  18.108   8.606 -0.6742  1.1275  0.6668
 7019UDC     C577203  17.063  18.173   8.580  0.0545 -0.1548 -0.2132
 7019UDC     C677204  17.056  18.314   8.538  0.8469 -0.4971 -0.1660
 7019UDC     C777205  17.002  18.410   8.650  0.7919  0.8685  0.3847
 7019UDC     C877206  17.011  18.564   8.613 -0.2521  0.0234 -0.4977
 7019UDC     C977207  17.145  18.615   8.543 -0.8382 -0.8890 -0.1135
 7019UDC    C1077208  17.142  18.752   8.473  1.1500 -0.5300  0.3695
 7019UDC    C1177209  17.282  18.797   8.439 -0.6080  0.2141  0.6922
 7020UDC     C177210  15.073  18.296   1.743 -0.4811 -0.6950 -0.7787
 7020UDC     C277211  15.155  18.372   1.846  0.2129  0.9539 -0.1116
 7020UDC     C377212  15.080  18.498   1.892 -0.7509 -0.7325 -0.8939
 7020UDC     C477213  15.065  18.600   1.775 -0.6709 -0.1797 -0.3375
 7020UDC     C577214  14.969  18.710   1.802  0.2861 -0.3431 -0.3296
 7020UDC     C677215  15.030  18.833   1.878 -0.9061 -0.6245  1.0604
 7020UDC     C777216  14.927  18.928   1.932 -0.0218 -1.0766 -0.1821
 7020UDC     C877217  14.849  19.008   1.825 -1.0313 -0.4923  1.1989
 7020UDC     C977218  14.728  19.071   1.902 -0.0164  0.8039 -0.0897
 7020UDC    C1077219  14.677  18.975   2.011 -0.6118 -1.3076 -0.2126
 7020UDC    C1177220  14.646  19.051   2.143 -1.0188  0.0664  0.1024
 7021UDC     C177221  17.795   2.612   8.165  0.2696 -1.2903  0.3733
 7021UDC     C277222  17.897   2.620   8.057  1.1643  0.3864  0.3105
 7021UDC     C377223  17.875   2.504   7.960  1.0593  0.9993 -0.3441
 7021UDC     C477224  17.961   2.378   7.987 -0.2850 -1.4533  0.9069
 7021UDC     C577225  17.898   2.268   8.075 -0.8171  0.8170 -0.3192
 7021UDC     C677226  17.999   2.205   8.178  0.3822  0.6666 -0.3791
 7021UDC     C777227  17.924   2.107   8.278  0.0259 -1.1798  0.2390
 7021UDC     C877228  17.966   2.098   8.424  0.6407  0.5433  0.6360
 7021UDC     C977229  17.853   2.112   8.524 -0.7509  1.0885 -0.1378
 7021UDC    C1077230  17.790   1.972   8.561 -1.2880  0.1714  0.7353
 7021UDC    C1177231  17.703   1.980   8.688 -0.0043  0.5990  0.8599
 7022UDC     C177232  17.661  13.512   3.835 -0.0293  0.9058 -1.2266
 7022UDC     C277233  17.517  13.462   3.853  1.3426 -1.2986  0.1260
 7022UDC     C377234  17.411  13.562   3.913  1.6782 -0.6208 -0.5794
 7022UDC     C477235  17.275  13.486   3.943  0.2316  0.0903 -0.9689
 7022UDC     C577236  17.173  13.580   4.011  0.9189  0.1217 -0.3567
 7022UDC     C677237  17.034  13.505   4.033  0.4877 -0.2946  0.1433
 7022UDC     C777238  17.027  13.436   4.168  0.4690 -0.2011  0.4312
 7022UDC     C877239  16.912  13.341   4.203  0.8539 -0.5537  0.8495
 7022UDC     C977240  16.783  13.399   4.144  0.6652  1.0827 -0.7927
 7022UDC    C1077241  16.657  13.342   4.215  0.2836 -0.2362  0.1360
 7022UDC    C1177242  16.541  13.340   4.111  0.0495 -0.2422 -1.0884
 7023UDC     C177243   4.790  17.047   6.667 -0.2041  0.7286 -0.0043
 7023UDC     C277244   4.891  17.007   6.776 -0.3605  0.7840  0.3668
 7023UDC     C377245   4.932  17.133   6.838 -0.2152 -0.2365 -0.1753
 7023UDC     C477246   5.051  17.118   6.928 -0.0146  0.2751  0.1855
 7023UDC     C577247   5.194  17.139   6.868 -0.6714 -0.3471 -0.1630
 7023UDC     C677248   5.311  17.118   6.965  0.6951 -1.3844 -0.1589
 7023UDC     C777249   5.319  17.233   7.065 -0.9469 -1.0500 -0.5123
 7023UDC     C877250   5.462  17.243   7.128  0.0942 -0.5143 -1.6767
 7023UDC     C977251   5.560  17.195   7.024 -0.5465 -0.4375 -0.5056
 7023UDC    C1077252   5.694  17.142   7.081  0.0194  0.6294 -0.5961
 7023UDC    C1177253   5.757  17.038   6.999  0.0867 -1.2669  0.9661
 7024UDC     C177254   0.934   6.903   4.264  1.2086  0.1970  0.0691
 7024UDC     C277255   0.957   6.757   4.240 -0.8608 -0.2822 -0.8467
 7024UDC     C377256   0.889   6.702   4.122 -0.3404 -1.3032  0.0908
 7024UDC     C477257   0.737   6.676   4.147 -0.2063  0.5670 -0.2577
 7024UDC     C577258   0.655   6.709   4.024 -0.4510  0.4077  0.3278
 7024UDC     C677259   0.657   6.575   3.937 -0.7801 -0.5415 -0.2628
 7024UDC     C777260   0.577   6.571   3.812  0.1103  0.0270  0.3107
 7024UDC     C877261   0.654   6.510   3.693  0.2792  0.6052 -0.8071
 7024UDC     C977262   0.789   6.437   3.703 -0.6403  0.3827 -0.6084
 7024UDC    C1077263   0.808   6.333   3.591 -0.0362  0.1881 -0.0465
 7024UDC    C1177264   0.955   6.285   3.579  0.2138  0.6001  0.3665
 7025UDC     C177265   4.647   8.729  10.536 -0.4064 -0.2493  0.3302
 7025UDC     C277266   4.559   8.609  10.514 -0.0068 -0.2672  1.4150
 7025UDC     C377267   4.640   8.481  10.539  0.4163  0.1753 -1.2480
 7025UDC     C477268   4.575   8.338  10.492  1.1631 -0.4851  0.4414
 7025UDC     C577269   4.441   8.291  10.562  0.4189 -0.1580 -0.0241
 7025UDC     C677270   4.389   8.143  10.547  0.3751  0.0743  1.5543
 7025UDC     C777271   4.336   8.127  10.398  0.5929  0.2655  0.3491
 7025UDC     C877272   4.208   8.217  10.390  0.3468 -0.5159 -1.3547
 7025UDC     C977273   4.178   8.211  10.244 -0.2774  0.3443  0.4889
 7025UDC    C1077274   4.277   8.253  10.142 -0.1028  0.2570 -1.0280
 7025UDC    C1177275   4.207   8.257  10.010 -0.2140 -0.0523  0.1490
 7026UDC     C177276   5.769  12.412   0.679  0.8809 -0.3278 -0.2740
 7026UDC     C277277   5.892  12.440   0.598 -0.6117  0.1401  0.2516
 7026UDC     C377278   6.003  12.509   0.673 -0.6958  0.4999  0.0522
 7026UDC     C477279   6.026  12.490   0.823 -0.7725 -0.2231 -0.1424
 7026UDC     C577280   6.178  12.503   0.862  1.0296 -0.5298 -0.1122
 7026UDC     C677281   6.273  12.586   0.790  0.4008 -0.2529  1.0543
 7026UDC     C777282   6.410  12.550   0.850  1.0283  0.2981 -0.1736
 7026UDC     C877283   6.535  12.600   0.788 -0.8487 -0.6267 -0.8546
 7026UDC     C977284   6.588  12.543   0.654 -0.5548  0.0513  0.1962
 7026UDC    C1077285   6.566  12.615   0.523  0.6148  1.3235  0.8417
 7026UDC    C1177286   6.603  12.755   0.546  0.2966 -0.3990 -0.0252
 7027UDC     C177287  13.019  18.793  15.330  0.2996 -0.9092  0.1169
 7027UDC     C277288  12.970  18.674  15.243  1.1427  0.3695  0.1766
 7027UDC     C377289  13.076  18.566  15.212  0.6603  0.2965  1.0656
 7027UDC     C477290  13.043  18.449  15.114 -0.4929 -0.4218 -0.7703
 7027UDC     C577291  13.096  18.312  15.168  0.0497  0.2529 -0.6535
 7027UDC     C677292  13.004  18.198  15.114 -0.6399 -0.8818 -0.0126
 7027UDC     C777293  12.866  18.240  15.067  2.0566 -0.1318  0.2588
 7027UDC     C877294  12.775  18.121  15.009  0.3550 -0.2299 -0.3007
 7027UDC     C977295  12.641  18.186  14.981  0.5423  0.1000  0.0184
 7027UDC    C1077296  12.567  18.099  14.884  0.6905 -0.2893 -0.5013
 7027UDC    C1177297  12.453  18.179  14.813  0.6709  0.8096 -0.7924
 7028UDC     C177298  18.325  14.683   5.353 -0.4149  1.0635 -0.2344
 7028UDC     C277299  18.279  14.621   5.224  0.9422 -1.1439  1.0571
 7028UDC     C377300  18.279  14.473   5.220 -0.5742  0.4467 -0.1664
 7028UDC     C477301  18.149  14.424   5.277 -0.5031 -1.0823 -0.4685
 7028UDC     C577302  18.022  14.497   5.228 -0.2000 -0.6609 -0.3755
 7028UDC     C677303  17.989  14.508   5.085  0.5226  0.9437  0.2245
 7028UDC     C777304  17.854  14.584   5.043 -0.5833  0.3624  0.1936
 7028UDC     C877305  17.882  14.735   5.051  1.3967  0.4165 -0.5794
 7028UDC     C977306  17.776  14.828   5.109 -0.2234  0.9643 -0.0104
 7028UDC    C1077307  17.831  14.963   5.123 -0.4754 -0.4510 -1.3123
 7028UDC    C1177308  17.734  15.082   5.151 -1.3122 -0.4232 -0.5464
 7029UDC     C177309   5.361  17.342   1.439  1.0200 -0.2030 -0.9773
 7029UDC     C277310   5.252  17.336   1.552 -0.0589 -0.2794  0.0265
 7029UDC     C377311   5.114  17.397   1.518  0.0225  0.1968 -0.6836
 7029UDC     C477312   5.020  17.456   1.629  0.0586  0.1608 -0.4906
 7029UDC     C577313   5.083  17.572   1.718 -0.6261 -0.1676  0.5704
 7029UDC     C677314   5.009  17.636   1.836  0.0256  0.6140  0.6892
 7029UDC     C777315   4.885  17.719   1.792  0.6428 -0.3944 -1.3687
 7029UDC     C877316   4.830  17.798   1.908  0.9092  0.4352 -0.8296
 7029UDC     C977317   4.729  17.732   2.007  0.6026  0.4241  0.1374
 7029UDC    C1077318   4.590  17.669   1.957  0.2022 -0.0148  0.0872
 7029UDC    C1177319   4.544  17.753   1.841 -0.5878 -0.1981  0.4576
 7030UDC     C177320   0.306  13.935   2.527  0.0605 -0.6388  0.2396
 7030UDC     C277321   0.398  13.838   2.610  0.2315  0.3787  0.4115
 7030UDC     C377322   0.543  13.881   2.576  0.9111 -0.5953  0.1190
 7030UDC     C477323   0.620  13.806   2.465  0.4123 -0.4579 -0.4802
 7030UDC     C577324   0.718  13.908   2.399  0.4830  0.5359 -0.3617
 7030UDC     C677325   0.801  13.828   2.294 -1.2740  0.0360 -0.5988
 7030UDC     C777326   0.764  13.806   2.143 -0.2045 -0.4460  0.6139
 7030UDC     C877327   0.805  13.934   2.052 -0.5415  0.6123  0.2383
 7030UDC     C977328   0.809  13.902   1.895  0.2862 -0.5870 -0.8027
 7030UDC    C1077329   0.812  14.034   1.812  0.0338  0.6093  0.2225
 7030UDC    C1177330   0.811  14.004   1.656  1.3523 -0.4592 -0.5956
 7031UDC     C177331  17.217   4.365  16.386 -0.2126  0.5925  0.0413
 7031UDC     C277332  17.317   4.456  16.310  0.3636  1.0846 -0.6486
 7031UDC     C377333  17.258   4.592  16.291  0.3783 -0.1314  0.1566
 7031UDC     C477334  17.373   4.687  16.275 -1.3805  0.0362  0.8827
 7031UDC     C577335  17.340   4.799  16.172  1.0599  0.0378 -0.3334
 7031UDC     C677336  17.454   4.879  16.109  0.1941 -0.3690  0.8379
 7031UDC     C777337  17.394   4.947  15.982 -0.1804 -0.9150  0.0382
 7031UDC     C877338  17.350   5.093  16.021  0.3010  0.8093 -0.0679
 7031UDC     C977339  17.319   5.180  15.894  0.5775  0.1689  0.5518
 7031UDC    C1077340  17.262   5.321  15.932 -0.1207 -0.9180  0.6831
 7031UDC    C1177341  17.191   5.399  15.820 -0.0031  1.2170  0.8892
 7032UDC     C177342  14.365  15.661   8.530 -0.0901  0.0912  0.0715
 7032UDC     C277343  14.475  15.742   8.458  1.7299  0.2352  1.0135
 7032UDC     C377344  14.459  15.893   8.487  0.0815 -0.3867  0.1536
 7032UDC     C477345  14.555  15.978   8.395 -0.5284 -0.4157 -0.7529
 7032UDC     C577346  14.521  16.132   8.416 -0.5202 -0.3187  0.4954
 7032UDC     C677347  14.579  16.187   8.546  0.3884  0.7392  1.4285
 7032UDC     C777348  14.726  16.230   8.532 -0.0032 -0.1033  0.9863
 7032UDC     C877349  14.806  16.322   8.625 -0.1469  0.0360 -0.2431
 7032UDC     C977350  14.797  16.289   8.777  0.2766  0.8774  0.9551
 7032UDC    C1077351  14.892  16.386   8.841 -1.1104 -0.1452 -0.7032
 7032UDC    C1177352  14.931  16.361   8.987  0.2711  0.0555 -0.4411
 7033UDC     C177353  11.351  10.549  18.698  0.8911  0.6147 -0.8687
 7033UDC     C277354  11.357  10.666  18.599  0.1712 -0.7284 -0.7682
 7033UDC     C377355  11.232  10.754  18.568 -0.7576 -0.2487  0.9253
 7033UDC     C477356  11.105  10.689  18.513  0.7388 -0.3591 -0.0392
 7033UDC     C577357  11.021  10.781  18.425  1.0185  0.1587  0.0143
 7033UDC     C677358  11.016  10.927  18.473 -0.7103  0.6812  0.1665
 7033UDC     C777359  10.946  11.031  18.387 -0.3303  0.4028  0.0654
 7033UDC     C877360  10.937  11.142  18.484  0.9688  0.2950  0.2930
 7033UDC     C977361  10.804  11.191  18.552  0.2588  0.2042  0.2274
 7033UDC    C1077362  10.686  11.228  18.461 -0.5190 -0.1205  0.1195
 7033UDC    C1177363  10.712  11.340  18.354  0.4019  0.5011  0.6040
 7034UDC     C177364   3.350  14.165  12.050 -0.4835  0.5059 -0.2868
 7034UDC     C277365   3.506  14.171  12.020  0.2631  0.1041 -1.4390
 7034UDC     C377366   3.566  14.051  11.956  0.0985  0.1259  0.6056
 7034UDC     C477367   3.617  13.959  12.070 -0.1899  0.2886 -0.0590
 7034UDC     C577368   3.637  13.815  12.022 -0.0289 -0.2570 -0.1341
 7034UDC     C677369   3.505  13.749  12.022  0.6646  0.3279 -0.8790
 7034UDC     C777370   3.533  13.603  11.984 -0.2754 -0.0691 -0.2777
 7034UDC     C877371   3.448  13.489  12.037  0.1691  0.8236 -0.8268
 7034UDC     C977372   3.482  13.341  12.005  0.7746  0.6965 -0.2783
 7034UDC    C1077373   3.366  13.268  11.933  0.9213 -0.4113 -0.2665
 7034UDC    C1177374   3.226  13.324  11.974 -0.1603  0.2229 -1.1675
 7035UDC     C177375   3.587   2.000   1.198 -0.7753  0.8648  0.3599
 7035UDC     C277376   3.628   1.970   1.343 -0.2287  0.7492  0.0099
 7035UDC     C377377   3.709   1.843   1.357 -0.0031  0.5238  0.3040
 7035UDC     C477378   3.769   1.803   1.493  0.6065 -0.6840 -0.4570
 7035UDC     C577379   3.885   1.701   1.508  0.8153  0.6345  0.8287
 7035UDC     C677380   3.923   1.692   1.657  0.4282  0.7804  0.4397
 7035UDC     C777381   3.898   1.555   1.719 -0.2814  0.1222 -0.2978
 7035UDC     C877382   4.008   1.515   1.821 -0.2689  0.1753 -1.0014
 7035UDC     C977383   4.039   1.634   1.916 -0.3841  0.1508  0.0276
 7035UDC    C1077384   4.171   1.717   1.906 -0.5912  0.0467  0.0656
 7035UDC    C1177385   4.283   1.627   1.954  0.1840 -0.0513 -0.1280
 7036UDC     C177386  14.124  17.634  19.172 -0.7213 -0.4431  0.6594
 7036UDC     C277387  14.093  17.485  19.147  0.7679  0.6325  0.0525
 7036UDC     C377388  14.199  17.397  19.213 -0.0126 -0.6868  0.7192
 7036UDC     C477389  14.148  17.269  19.271  0.6124  0.4466 -0.3217
 7036UDC     C577390  14.146  17.167  19.159 -0.3195  0.2584  0.4147
 7036UDC     C677391  14.078  17.033  19.201  0.2106  0.8058  0.0883
 7036UDC     C777392  14.151  16.916  19.130 -1.4761  0.3628 -0.4143
 7036UDC     C877393  14.247  16.836  19.234  0.9008 -0.0388  0.6193
 7036UDC     C977394  14.344  16.726  19.176  0.3881  0.6883  1.0249
 7036UDC    C1077395  14.459  16.698  19.277  1.2936  0.1763  0.5932
 7036UDC    C1177396  14.425  16.645  19.423  0.0340  1.3306 -0.7091
 7037UDC     C177397  18.204   2.846  14.276 -0.6172 -1.6630  1.1359
 7037UDC     C277398  18.214   2.967  14.173  1.7304  0.6271 -0.0192
 7037UDC     C377399  18.111   3.077  14.166  0.4719  0.2640  0.3166
 7037UDC     C477400  18.059   3.138  14.296 -0.1261 -0.6667  0.5852
 7037UDC     C577401  17.934   3.224  14.270  0.1425 -0.4927  0.2403
 7037UDC     C677402  17.945   3.343  14.170 -0.9768  0.1566 -1.5416
 7037UDC     C777403  17.859   3.460  14.215  0.5624  0.2329 -0.5428
 7037UDC     C877404  17.864   3.585  14.129 -0.1128  0.1299 -1.4127
 7037UDC     C977405  17.766   3.702  14.176 -0.1973  0.9276  0.5592
 7037UDC    C1077406  17.760   3.719  14.327 -0.6394  0.9714  0.4833
 7037UDC    C1177407  17.727   3.852  14.385  0.8570  0.4531  0.5341
 7038UDC     C177408   3.809  14.516  13.343  0.1938 -1.0526 -0.2707
 7038UDC     C277409   3.735  14.444  13.227 -0.2386 -1.0047 -0.4919
 7038UDC     C377410   3.787  14.317  13.170  0.4151 -0.3476  0.2396
 7038UDC     C477411   3.799  14.210  13.275  0.0400 -0.2150  0.0183
 7038UDC     C577412   3.857  14.083  13.213  1.5294 -0.0461  0.3057
 7038UDC     C677413   3.987  14.083  13.137 -0.4703  0.4617  0.5144
 7038UDC     C777414   4.021  13.945  13.071 -0.8554  0.7590 -0.4129
 7038UDC     C877415   4.166  13.935  13.012  1.0044  0.4632  0.1544
 7038UDC     C977416   4.219  13.835  12.908  1.1917  1.4889 -0.2350
 7038UDC    C1077417   4.368  13.811  12.897 -1.1413  0.3724  0.1798
 7038UDC    C1177418   4.441  13.921  12.814 -0.7350  0.3701 -0.8903
 7039UDC     C177419   5.313  14.175  10.594 -0.2462  0.7008  0.3694
 7039UDC     C277420   5.245  14.295  10.525 -0.3402 -0.0093 -0.6621
 7039UDC     C377421   5.110  14.261  10.454 -0.1433  1.0096  0.1241
 7039UDC     C477422   5.044  14.356  10.356  0.0016  0.0156  0.5527
 7039UDC     C577423   5.147  14.406  10.251  0.7418 -0.0224  0.1739
 7039UDC     C677424   5.089  14.492  10.134 -0.5087 -0.1069 -0.8565
 7039UDC     C777425   5.191  14.562  10.041  0.6725  0.6901 -0.6012
 7039UDC     C877426   5.153  14.659   9.933  0.2986 -0.2026  0.1562
 7039UDC     C977427   5.236  14.693   9.810 -0.1710  0.2026  0.9186
 7039UDC    C1077428   5.394  14.702   9.812  0.3555  0.6239  0.2742
 7039UDC    C1177429   5.446  14.763   9.683  0.2460  0.0266  0.7433
 7040UDC     C177430  16.522   2.268  14.534 -0.4372  0.7818 -0.6621
 7040UDC     C277431  16.493   2.292  14.383 -0.2434 -0.2297 -0.0061
 7040UDC     C377432  16.413   2.420  14.350  0.3088  0.4284  0.2653
 7040UDC     C477433  16.258   2.425  14.359  1.1156  0.2079 -0.4058
 7040UDC     C577434  16.183   2.390  14.487 -0.7227 -0.4235 -0.5054
 7040UDC     C677435  16.029   2.364  14.462  0.0855 -0.2455 -0.9127
 7040UDC     C777436  15.948   2.330  14.585 -0.0923  0.1896 -0.2736
 7040UDC     C877437  15.795   2.345  14.546 -0.1500 -0.4651 -0.1242
 7040UDC     C977438  15.703   2.225  14.589 -0.5020 -0.0253  0.0637
 7040UDC    C1077439  15.549   2.227  14.575 -0.1735  0.7955 -0.1562
 7040UDC    C1177440  15.477   2.321  14.669  0.1002  0.4214  0.2401
 7041UDC     C177441   2.054   7.157   2.222  0.3147  0.8591  0.3248
 7041UDC     C277442   2.087   7.111   2.363  0.5370 -0.4380  0.5551
 7041UDC     C377443   2.200   7.197   2.415  0.7728 -0.2883  0.2112
 7041UDC     C477444   2.166   7.346   2.430  1.2087 -0.2582  0.1428
 7041UDC     C577445   2.296   7.428   2.438  0.3965 -0.5529  0.3140
 7041UDC     C677446   2.264   7.573   2.497  0.7056 -0.9431 -0.5760
 7041UDC     C777447   2.377   7.626   2.583  0.0121  0.6381 -0.5547
 7041UDC     C877448   2.518   7.576   2.559 -0.8626  1.5054 -0.1126
 7041UDC     C977449   2.614   7.571   2.679 -0.5351 -0.0189 -1.2726
 7041UDC    C1077450   2.762   7.623   2.667  0.6807  0.9971  0.3890
 7041UDC    C1177451   2.852   7.568   2.557 -0.2666  1.3327 -0.7851
 7042UDC     C177452   9.727  14.799   1.427 -0.1036 -0.3027  0.4278
 7042UDC     C277453   9.750  14.649   1.423  0.2142 -0.2735  0.2189
 7042UDC     C377454   9.638  14.556   1.467 -0.4370 -0.2092 -0.0906
 7042UDC     C477455   9.529  14.537   1.368  0.4693  0.2954  0.3196
 7042UDC     C577456   9.531  14.392   1.311 -0.0910  0.1647  0.1626
 7042UDC     C677457   9.609  14.342   1.189  0.3563 -0.0197  0.5995
 7042UDC     C777458   9.589  14.191   1.144  0.3078  0.2751 -0.4013
 7042UDC     C877459   9.681  14.149   1.032  0.1870 -0.2225 -0.5921
 7042UDC     C977460   9.750  14.011   1.045 -0.1314  1.7164  0.6513
 7042UDC    C1077461   9.652  13.895   1.062 -0.7019 -0.2198 -1.1677
 7042UDC    C1177462   9.714  13.750   1.078 -0.1429 -1.0537 -0.8320
 7043UDC     C177463  15.142  10.552  14.473  0.0621 -0.1003  0.2156
 7043UDC     C277464  15.239  10.442  14.520  1.2493  0.1984 -0.6109
 7043UDC     C377465  15.254  10.451  14.677  0.2335 -0.3875  0.6752
 7043UDC     C477466  15.364  10.367  14.737  0.3557  0.0604 -0.5348
 7043UDC     C577467  15.394  10.377  14.886 -0.5410  0.6603 -0.8179
 7043UDC     C677468  15.475  10.497  14.947 -0.6918  0.6743  0.9915
 7043UDC     C777469  15.618  10.519  14.890  0.4999  0.4799  0.6975
 7043UDC     C877470  15.714  10.615  14.969  1.2717  0.1905 -0.4871
 7043UDC     C977471  15.772  10.712  14.867 -0.3896 -0.6349  0.1423
 7043UDC    C1077472  15.848  10.835  14.917 -0.7034 -0.5740  0.1873
 7043UDC    C1177473  15.896  10.932  14.812 -0.2650  0.8418  0.1954
 7044UDC     C177474  14.707  10.476   9.422  0.1392  1.1038  0.1912
 7044UDC     C277475  14.853  10.461   9.374  0.0930 -0.3224  0.2993
 7044UDC     C377476  14.886  10.584   9.281  0.5145 -0.1182 -0.8534
 7044UDC     C477477  15.016  10.599   9.207  0.6022 -1.2075 -0.1819
 7044UDC     C577478  15.143  10.582   9.299 -0.1537  0.1700  0.4569
 7044UDC     C677479  15.252  10.526   9.200 -0.6645 -0.4282 -0.7437
 7044UDC     C777480  15.202  10.414   9.122  0.6252  0.1579  0.9355
 7044UDC     C877481  15.311  10.356   9.029 -0.2238  0.2179  0.6008
 7044UDC     C977482  15.280  10.259   8.910 -0.4225 -0.3194  0.4116
 7044UDC    C1077483  15.404  10.227   8.825 -0.2163 -0.6858  0.2166
 7044UDC    C1177484  15.364  10.138   8.710 -0.6448  0.1091  0.3972
 7045UDC     C177485  11.643  13.357   2.123 -0.3334  0.3271  0.2778
 7045UDC     C277486  11.533  13.268   2.058 -0.4444  0.3175  0.9747
 7045UDC     C377487  11.469  13.333   1.935  0.3274 -0.8845  1.6557
 7045UDC     C477488  11.342  13.417   1.961 -0.0702  1.3660  0.0452
 7045UDC     C577489  11.237  13.338   1.871  1.0965 -1.4957 -0.1619
 7045UDC     C677490  11.101  13.407   1.896 -0.7469 -0.0265  1.6103
 7045UDC     C777491  10.987  13.348   1.817 -0.4829  0.7067 -0.5732
 7045UDC     C877492  10.948  13.204   1.866  0.6838 -0.4365 -0.6511
 7045UDC     C977493  10.836  13.129   1.785  0.0920  0.3031  0.1715
 7045UDC    C1077494  10.862  13.112   1.634 -0.0049 -0.7013  0.4666
 7045UDC    C1177495  10.776  13.002   1.564  0.2781  0.6764 -0.6732
 7046UDC     C177496  12.130  18.145   0.358 -0.3380 -0.1978 -0.7707
 7046UDC     C277497  12.054  18.149   0.493  0.3841  0.7729  0.3060
 7046UDC     C377498  12.131  18.095   0.609 -0.1102 -0.4978 -1.0728
 7046UDC     C477499  12.050  18.044   0.726  0.2347 -1.3554  0.1551
 7046UDC     C577500  12.132  17.941   0.803 -0.0857  0.2767  1.3323
 7046UDC     C677501  12.038  17.838   0.868 -0.5791 -0.1431 -0.1033
 7046UDC     C777502  12.095  17.693   0.895  0.8620  0.0385  1.0333
 7046UDC     C877503  12.169  17.636   0.774 -0.3990 -0.4206  0.5980
 7046UDC     C977504  12.264  17.505   0.791 -0.1064 -1.0942  0.0892
 7046UDC    C1077505  12.331  17.471   0.657 -0.6627 -0.1217 -0.6274
 7046UDC    C1177506  12.446  17.365   0.670  0.3947 -0.4728  0.3216
 7047UDC     C177507  19.028   0.543   7.869  0.1581 -0.9882  0.4008
 7047UDC     C277508  19.088   0.682   7.885 -0.6858 -0.3447  0.9412
 7047UDC     C377509  19.112   0.712   8.032 -0.0685  0.5624 -0.5161
 7047UDC     C477510  19.168   0.855   8.039  0.5969  0.0467 -0.8597
 7047UDC     C577511  19.078   0.961   7.967  0.7870 -1.1476  1.1138
 7047UDC     C677512  18.924   0.960   7.998  0.8288 -0.5100  0.4929
 7047UDC     C777513  18.846   1.022   7.885 -0.1890 -0.3832 -0.0549
 7047UDC     C877514  18.706   1.065   7.931  0.1681  0.5841  0.0592
 7047UDC     C977515  18.683   1.192   8.016  0.0709  0.0934  0.4140
 7047UDC    C1077516  18.551   1.214   8.095 -1.1426  0.8758  0.8254
 7047UDC    C1177517  18.538   1.107   8.203 -0.8339 -0.5218 -0.2482
 7048UDC     C177518  13.399   3.962  16.259  0.1255 -0.2179  0.3150
 7048UDC     C277519  13.438   4.089  16.345 -0.7496  0.7285 -0.3272
 7048UDC     C377520  13.431   4.225  16.275 -0.4137 -0.8653  0.4363
 7048UDC     C477521  13.429   4.349  16.364  0.3628 -0.0507  0.1417
 7048UDC     C577522  13.471   4.486  16.302 -0.7403  0.5556 -0.5341
 7048UDC     C677523  13.424   4.626  16.352  0.9221  0.0830 -0.0961
 7048UDC     C777524  13.272   4.660  16.356  0.1836  0.0140 -0.3343
 7048UDC     C877525  13.269   4.781  16.457 -0.9216  0.2481 -0.4741
 7048UDC     C977526  13.376   4.749  16.571  0.1016  0.4415 -0.9104
 7048UDC    C1077527  13.416   4.868  16.662  0.2307 -0.3433  0.7171
 7048UDC    C1177528  13.298   4.944  16.725 -0.7700  0.4948 -1.0422
 7049UDC     C177529  17.941   5.666   5.742  0.0624 -0.1875 -0.1165
 7049UDC     C277530  17.860   5.798   5.714 -0.4197 -0.9625  0.2669
 7049UDC     C377531  17.955   5.922   5.710 -0.6572  0.6850  0.3627
 7049UDC     C477532  18.067   5.942   5.601 -0.0221 -0.2605 -0.2927
 7049UDC     C577533  18.011   5.923   5.456  0.3352  0.0407  0.5237
 7049UDC     C677534  17.927   6.046   5.411 -0.6761 -0.0242  0.8216
 7049UDC     C777535  17.926   6.057   5.251 -0.1412 -1.1404 -0.3626
 7049UDC     C877536  18.057   6.057   5.175  1.2725  0.2319 -0.2736
 7049UDC     C977537  18.049   6.126   5.040  0.3273 -0.9962 -0.8374
 7049UDC    C1077538  18.182   6.152   4.963  1.0244 -0.5187  0.2091
 7049UDC    C1177539  18.248   6.284   4.941 -0.6169  0.8998  1.2916
 7050UDC     C177540  18.636   9.633  15.405 -0.0083  1.4792  0.7644
 7050UDC     C277541  18.782   9.683  15.407  0.3840  0.7806 -0.6011
 7050UDC     C377542  18.807   9.795  15.301  1.1191  0.3629 -0.2507
 7050UDC     C477543  18.683   9.876  15.276 -0.5001  0.0181 -0.0553
 7050UDC     C577544  18.713   9.957  15.146 -0.3299  0.0778 -0.0456
 7050UDC     C677545  18.588  10.035  15.094  0.7096 -0.3341 -1.0051
 7050UDC     C777546  18.603  10.128  14.977 -0.3263 -0.4682  0.0806
 7050UDC     C877547  18.729  10.224  14.983  1.0396  0.2397  0.0151
 7050UDC     C977548  18.757  10.301  14.854 -0.9871  1.2885 -0.8967
 7050UDC    C1077549  18.904  10.351  14.857 -1.2115 -0.7848  0.7269
 7050UDC    C1177550  18.959  10.397  14.712 -0.1912  0.5678 -0.4660
 7051UDC     C177551  19.033  16.788  18.276 -0.1304  0.8025 -0.0526
 7051UDC     C277552  19.108  16.852  18.393 -0.5377  0.0743 -0.3541
 7051UDC     C377553  19.147  16.995  18.361  0.6976  0.4530  0.9720
 7051UDC     C477554  19.140  17.088  18.487  0.2415 -0.6678 -0.0131
 7051UDC     C577555  18.997  17.123  18.543 -0.6629  0.5354 -0.7976
 7051UDC     C677556  18.985  17.243  18.636 -0.3783 -0.1186 -0.0648
 7051UDC     C777557  18.866  17.254  18.735  0.8225  0.0928  0.5009
 7051UDC     C877558  18.731  17.191  18.697 -0.3727 -0.4626  0.8838
 7051UDC     C977559  18.637  17.278  18.784  0.0033  1.6150  0.2076
 7051UDC    C1077560  18.494  17.222  18.799  0.1062 -0.1918 -0.1653
 7051UDC    C1177561  18.498  17.083  18.860 -1.1227  0.8702 -0.0389
 7052UDC     C177562  11.565  12.174  18.084 -1.0029  0.2434 -0.9484
 7052UDC     C277563  11.637  12.034  18.059 -0.4623 -0.3493  0.1906
 7052UDC     C377564  11.592  11.952  17.936 -0.0366 -0.0347 -0.3516
 7052UDC     C477565  11.659  11.967  17.799 -0.9772  0.3381 -0.0593
 7052UDC     C577566  11.755  11.857  17.750 -0.6495  0.3064 -0.4763
 7052UDC     C677567  11.835  11.768  17.860  0.2190 -0.4051  0.1144
 7052UDC     C777568  11.885  11.643  17.783 -1.4169 -0.0717 -0.3127
 7052UDC     C877569  11.775  11.553  17.731  0.7308 -0.5565 -0.0338
 7052UDC     C977570  11.837  11.417  17.695  2.0181  0.4920 -0.5437
 7052UDC    C1077571  11.779  11.362  17.556  0.0499  0.1716 -0.0956
 7052UDC    C1177572  11.838  11.223  17.501  0.2002 -0.4451 -0.4603
 7053UDC     C177573  11.554  15.089  13.278 -0.5306  0.0056  0.6115
 7053UDC     C277574  11.544  15.142  13.423 -1.1557  0.5058 -0.9256
 7053UDC     C377575  11.511  15.294  13.429  0.1908 -1.0847 -0.2570
 7053UDC     C477576  11.517  15.351  13.574  0.7769  0.5344 -1.1289
 7053UDC     C577577  11.553  15.503  13.577  0.2174 -0.2452 -0.9200
 7053UDC     C677578  11.561  15.533  13.729  0.3864 -0.7230 -0.7758
 7053UDC     C777579  11.573  15.688  13.760 -0.5968  0.3337  0.9512
 7053UDC     C877580  11.488  15.800  13.702  0.6932 -1.0562  0.8037
 7053UDC     C977581  11.469  15.928  13.791  1.0393 -0.2464  0.2433
 7053UDC    C1077582  11.387  16.035  13.713  0.5043  0.0054  0.2064
 7053UDC    C1177583  11.331  16.145  13.809  0.1045 -0.6652 -0.0145
 7054UDC     C177584  11.791  10.343  12.823 -0.6744 -0.5132 -0.4954
 7054UDC     C277585  11.783  10.449  12.930  0.2043 -0.0182 -0.4234
 7054UDC     C377586  11.704  10.584  12.917 -0.4362 -0.0726  0.9962
 7054UDC     C477587  11.707  10.656  13.052 -0.3311  0.4428  0.9064
 7054UDC     C577588  11.671  10.808  13.059 -1.3130 -0.4448  0.1812
 7054UDC     C677589  11.780  10.907  13.014  0.3957 -0.4559  0.5915
 7054UDC     C777590  11.764  11.060  13.030 -0.7754 -0.5584 -0.2886
 7054UDC     C877591  11.773  11.090  13.181 -0.1522  0.1406 -0.7170
 7054UDC     C977592  11.639  11.093  13.257  0.3331  0.2311  0.7173
 7054UDC    C1077593  11.650  11.173  13.390  0.3668 -0.0366  0.3274
 7054UDC    C1177594  11.513  11.218  13.440  0.4841 -0.3411  0.1305
 7055UDC     C177595  19.214  16.764   7.906  0.4911  0.9169 -0.3993
 7055UDC     C277596  19.131  16.697   8.016  0.6369 -0.6905  1.0616
 7055UDC     C377597  19.028  16.598   7.971  0.3440  0.5134  0.2667
 7055UDC     C477598  18.894  16.597   8.052 -0.0031  0.6264  0.3171
 7055UDC     C577599  18.826  16.463   8.040 -0.5417 -0.9925  0.6249
 7055UDC     C677600  18.681  16.455   8.092  0.3410  0.2968 -0.4308
 7055UDC     C777601  18.575  16.525   8.008 -1.5967 -0.6538  0.8175
 7055UDC     C877602  18.589  16.500   7.858 -1.0586 -0.5894 -0.9898
 7055UDC     C977603  18.513  16.615   7.781  0.4025  1.4296 -0.1462
 7055UDC    C1077604  18.618  16.717   7.730  0.4731 -0.3333  0.2265
 7055UDC    C1177605  18.587  16.866   7.695 -0.6659  1.0938  0.5149
 7056UDC     C177606   2.289  18.225   9.907 -0.0598  0.2790  0.0535
 7056UDC     C277607   2.442  18.216   9.940 -0.1127 -0.1003 -0.2962
 7056UDC     C377608   2.524  18.315   9.854 -0.0686  1.5219  0.7525
 7056UDC     C477609   2.479  18.325   9.706 -0.6981 -0.6711 -0.8771
 7056UDC     C577610   2.484  18.463   9.648  0.8178 -0.8228  0.2048
 7056UDC     C677611   2.416  18.489   9.507  0.2231  0.0859 -0.2866
 7056UDC     C777612   2.300  18.577   9.552  0.3265  1.0085  0.0198
 7056UDC     C877613   2.352  18.714   9.596 -0.6901 -0.1710 -0.1281
 7056UDC     C977614   2.244  18.832   9.593 -1.2428 -0.2997  0.4439
 7056UDC    C1077615   2.296  18.942   9.690  1.7345 -0.2066 -0.1130
 7056UDC    C1177616   2.245  19.082   9.647 -0.0914 -0.6337  0.7918
 7057UDC     C177617  14.111  16.382  19.273  0.4191 -0.7965  0.7794
 7057UDC     C277618  13.983  16.329  19.204 -0.3596  0.6628 -0.1736
 7057UDC     C377619  13.898  16.453  19.179 -1.5542 -0.6040 -0.7356
 7057UDC     C477620  13.965  16.524  19.059  1.1208 -0.4428  0.6757
 7057UDC     C577621  13.901  16.654  18.999  0.7459  0.3564  0.7100
 7057UDC     C677622  13.757  16.629  18.957  0.1643  0.2913  0.1869
 7057UDC     C777623  13.725  16.593  18.811 -0.1555  0.2225  0.3085
 7057UDC     C877624  13.789  16.654  18.683 -0.2468 -0.2912 -0.4671
 7057UDC     C977625  13.915  16.576  18.633 -0.0694 -0.4240  0.4938
 7057UDC    C1077626  13.944  16.592  18.479  0.3666 -0.7239 -1.2623
 7057UDC    C1177627  14.051  16.509  18.423 -0.8648  0.1364  0.2501
 7058UDC     C177628   1.904   7.588  19.363 -0.0349  0.2955  0.6638
 7058UDC     C277629   1.944   7.584  19.216  0.2612 -0.3917  0.7808
 7058UDC     C377630   1.851   7.682  19.150  0.2597 -0.1382 -0.2917
 7058UDC     C477631   1.936   7.779  19.070 -0.6559  0.3990 -0.6305
 7058UDC     C577632   1.861   7.895  19.005  0.1416 -0.4569  0.5272
 7058UDC     C677633   1.916   7.935  18.863 -0.3624 -0.9653  0.3671
 7058UDC     C777634   1.936   8.093  18.856  0.8391  0.7103  0.9913
 7058UDC     C877635   2.033   8.132  18.735  1.4048 -0.6542 -0.7745
 7058UDC     C977636   2.169   8.061  18.717  0.8559 -0.4748  0.8014
 7058UDC    C1077637   2.234   8.096  18.579  0.0482  0.1251 -1.0372
 7058UDC    C1177638   2.255   7.970  18.493  0.9891 -0.1480 -0.1873
 7059UDC     C177639   1.721   9.981  15.056 -1.0366  0.3612 -0.7228
 7059UDC     C277640   1.631   9.871  15.108 -0.5805 -0.1161  0.6531
 7059UDC     C377641   1.564   9.895  15.240  0.2588  0.0951  0.0595
 7059UDC     C477642   1.452   9.986  15.210 -0.2046  0.2135 -1.2835
 7059UDC     C577643   1.379  10.049  15.323  1.1033 -0.9665 -0.9019
 7059UDC     C677644   1.258  10.139  15.299  1.3314  0.2424  0.2226
 7059UDC     C777645   1.298  10.277  15.237 -0.8927  0.6443 -0.7277
 7059UDC     C877646   1.322  10.404  15.325 -0.0373  0.2427 -0.2595
 7059UDC     C977647   1.382  10.521  15.257  0.6062 -0.1766 -0.3169
 7059UDC    C1077648   1.326  10.649  15.316 -0.6460 -0.1482  0.1140
 7059UDC    C1177649   1.310  10.777  15.223 -0.5631 -0.2053 -0.1024
 7060UDC     C177650  10.714  12.910  11.200  0.2985  0.0566  0.6594
 7060UDC     C277651  10.791  12.820  11.291 -0.9715 -0.3993  0.0113
 7060UDC     C377652  10.816  12.875  11.433  0.3972 -0.8938  0.3941
 7060UDC     C477653  10.946  12.825  11.504 -0.3655 -0.5797 -0.1065
 7060UDC     C577654  10.958  12.675  11.538 -0.0011 -1.9331 -1.0268
 7060UDC     C677655  10.850  12.629  11.633 -0.7520  0.7449 -0.4996
 7060UDC     C777656  10.868  12.478  11.661  0.8622  0.6673  0.6061
 7060UDC     C877657  10.752  12.416  11.751 -1.0648 -0.1236 -1.4038
 7060UDC     C977658  10.793  12.421  11.906 -1.3791 -0.6315 -1.0259
 7060UDC    C1077659  10.770  12.563  11.966  0.0257 -0.1939  0.1617
 7060UDC    C1177660  10.620  12.602  11.977 -0.3456 -0.2460 -0.6398
 7061UDC     C177661   8.417  10.387  12.286  0.0894 -0.3268  1.1355
 7061UDC     C277662   8.407  10.464  12.151 -0.9479 -0.4332  0.7253
 7061UDC     C377663   8.442  10.611  12.133  0.6880  0.1356  0.1085
 7061UDC     C477664   8.506  10.643  11.998 -0.0145 -0.4444 -0.5664
 7061UDC     C577665   8.659  10.614  11.997  0.8322 -0.6538  0.3737
 7061UDC     C677666   8.737  10.744  12.013  0.2202 -0.4540  0.3081
 7061UDC     C777667   8.869  10.760  12.093  0.0341  1.4624 -0.1660
 7061UDC     C877668   8.876  10.681  12.227  0.5772 -0.6038 -0.2365
 7061UDC     C977669   8.809  10.727  12.354  0.3347 -0.6523 -1.0193
 7061UDC    C1077670   8.863  10.636  12.459 -0.3876  1.0428 -0.2353
 7061UDC    C1177671   8.878  10.491  12.423 -0.1973  0.2274 -0.8759
 7062UDC     C177672   7.750   0.046  17.597  0.6172  0.3197 -0.1071
 7062UDC     C277673   7.751   0.192  17.553 -0.1756 -0.7308 -0.3781
 7062UDC     C377674   7.702   0.302  17.650 -0.8876 -0.9425  0.3814
 7062UDC     C477675   7.590   0.398  17.613 -0.9011 -0.4592 -0.4199
 7062UDC     C577676   7.560   0.491  17.733  0.6434  0.2746 -0.1334
 7062UDC     C677677   7.562   0.416  17.866  0.0534  0.0603 -0.7579
 7062UDC     C777678   7.542   0.507  17.991  0.4475 -0.2786  0.4151
 7062UDC     C877679   7.513   0.462  18.142 -0.3269 -0.8252 -0.6048
 7062UDC     C977680   7.522   0.581  18.232 -0.2978 -0.6157 -0.0252
 7062UDC    C1077681   7.425   0.570  18.350  0.7659  0.2730  0.0232
 7062UDC    C1177682   7.419   0.688  18.443 -0.1742  0.1252 -0.2155
 7063UDC     C177683  10.042  19.964   9.462 -0.9180 -0.6634 -0.7058
 7063UDC     C277684  10.157  20.033   9.535  0.2276 -0.0170 -1.4575
 7063UDC     C377685  10.269  19.949   9.610 -0.1643 -0.5216 -0.1011
 7063UDC     C477686  10.329  19.856   9.502  0.4654  0.5446 -0.8629
 7063UDC     C577687  10.430  19.765   9.568 -0.0440  0.0818 -0.8084
 7063UDC     C677688  10.532  19.845   9.660 -0.7139 -0.2936  0.5329
 7063UDC     C777689  10.627  19.755   9.747  0.0254 -0.0393  0.4821
 7063UDC     C877690  10.705  19.654   9.667  0.3194  0.5193  0.6447
 7063UDC     C977691  10.794  19.564   9.753 -0.0909  0.0406  0.4285
 7063UDC    C1077692  10.836  19.441   9.682 -0.7020  0.4977 -0.4932
 7063UDC    C1177693  10.898  19.340   9.785  1.2021 -0.3161  0.5589
 7064UDC     C177694   7.019   6.679  18.706  0.7170 -0.5040 -0.2650
 7064UDC     C277695   6.924   6.715  18.826 -0.5484  0.3805  1.1765
 7064UDC     C377696   6.784   6.756  18.775  0.3627  0.1289  0.7518
 7064UDC     C477697   6.708   6.653  18.685 -0.0570 -0.5675 -0.1583
 7064UDC     C577698   6.583   6.570  18.739  1.9836 -1.6570  0.4539
 7064UDC     C677699   6.500   6.488  18.640 -0.3650  1.2031  0.4153
 7064UDC     C777700   6.440   6.362  18.710 -0.7333  0.2182 -0.1324
 7064UDC     C877701   6.382   6.256  18.614  0.4815  0.8542 -0.9243
 7064UDC     C977702   6.397   6.108  18.663  0.2142 -0.8896 -0.6725
 7064UDC    C1077703   6.269   6.034  18.622  0.3562  0.3268  0.9297
 7064UDC    C1177704   6.257   5.895  18.699  0.4740 -1.0040  0.1726
 7065UDC     C177705  13.153  17.620  16.296 -0.1905  0.7782  0.3825
 7065UDC     C277706  13.158  17.570  16.143  0.3914  1.2538 -0.9472
 7065UDC     C377707  13.043  17.622  16.059 -0.8470  0.3473  0.1301
 7065UDC     C477708  13.058  17.581  15.911  0.4043  0.3246  0.7236
 7065UDC     C577709  13.083  17.693  15.808 -1.1489  0.3900  0.2745
 7065UDC     C677710  12.958  17.780  15.784 -0.7042 -0.7580 -0.4833
 7065UDC     C777711  12.987  17.888  15.676 -0.0050 -0.9981  0.1360
 7065UDC     C877712  12.867  17.993  15.672 -0.3719  0.0835  0.8352
 7065UDC     C977713  12.884  18.125  15.583 -0.0684  0.8673 -1.0008
 7065UDC    C1077714  12.758  18.190  15.541  0.5064 -0.4734  0.7434
 7065UDC    C1177715  12.772  18.330  15.471  0.7968  0.8312 -0.4968
 7066UDC     C177716  18.071  12.187   0.361  0.7951  0.1561  0.4625
 7066UDC     C277717  18.020  12.044   0.318 -0.1137 -0.4823 -0.9832
 7066UDC     C377718  18.051  11.939   0.431 -0.0520 -0.6959  1.3453
 7066UDC     C477719  18.203  11.904   0.427  0.4164  0.3435 -2.0745
 7066UDC     C577720  18.223  11.779   0.516  0.3028  0.3664 -0.0145
 7066UDC     C677721  18.373  11.748   0.544  0.4125  0.6066 -0.2740
 7066UDC     C777722  18.467  11.859   0.592  0.0084 -0.6197  0.3662
 7066UDC     C877723  18.605  11.801   0.609  0.7121  0.2752  0.0542
 7066UDC     C977724  18.615  11.648   0.600 -0.2635  0.3028  0.9079
 7066UDC    C1077725  18.764  11.599   0.589  0.8351  0.3058  0.1011
 7066UDC    C1177726  18.875  11.645   0.690  0.7742  0.7504  0.0994
 7067UDC     C177727   7.356  15.015  18.518 -0.2456 -0.1261 -0.8537
 7067UDC     C277728   7.356  15.157  18.575  1.0836 -0.7876  0.4802
 7067UDC     C377729   7.215  15.218  18.591  0.7106 -0.4483  0.2043
 7067UDC     C477730   7.176  15.359  18.644  0.1334  1.1424 -1.2061
 7067UDC     C577731   7.045  15.332  18.728 -0.5890 -1.0240  0.4204
 7067UDC     C677732   6.982  15.469  18.774 -0.0010 -1.8430  0.0541
 7067UDC     C777733   6.858  15.463  18.870 -0.7915  0.0630  0.7525
 7067UDC     C877734   6.817  15.610  18.882 -0.2849  0.3726 -1.0283
 7067UDC     C977735   6.796  15.673  18.747  0.4917 -0.1387  0.2581
 7067UDC    C1077736   6.789  15.827  18.735 -0.2597  0.8710 -0.5785
 7067UDC    C1177737   6.734  15.891  18.608 -0.1173  0.1123  0.3247
 7068UDC     C177738  15.973  11.604   8.571 -0.6418  0.2437 -0.6447
 7068UDC     C277739  16.114  11.578   8.514  0.5221  0.0874  0.5795
 7068UDC     C377740  16.131  11.628   8.368  0.2479 -0.2491 -1.0916
 7068UDC     C477741  16.059  11.535   8.275 -0.8007 -0.6757  0.4051
 7068UDC     C577742  15.940  11.608   8.205 -0.2682  0.2017  1.1994
 7068UDC     C677743  15.951  11.620   8.051 -0.5940  0.4331 -0.6076
 7068UDC     C777744  15.817  11.656   7.993 -0.1699 -0.8791  0.5681
 7068UDC     C877745  15.800  11.691   7.848  0.7339 -0.4902 -0.9391
 7068UDC     C977746  15.872  11.815   7.793 -0.3684 -0.3023 -0.6345
 7068UDC    C1077747  16.008  11.797   7.724  0.3284 -0.1128 -0.4462
 7068UDC    C1177748  16.005  11.895   7.608 -0.4053  0.1393 -0.1712
 7069UDC     C177749   3.532   0.408  14.582 -0.0256 -0.8424 -0.7230
 7069UDC     C277750   3.382   0.429  14.542  0.0761 -0.2448 -0.9749
 7069UDC     C377751   3.374   0.491  14.402 -0.8107  1.2168 -0.1441
 7069UDC     C477752   3.404   0.399  14.282  0.3719  0.6706 -1.2832
 7069UDC     C577753   3.396   0.472  14.149  0.1944  0.0905 -0.1833
 7069UDC     C677754   3.252   0.535  14.133  0.9344 -0.0638  0.5194
 7069UDC     C777755   3.205   0.512  13.993  0.6029  0.4147  0.4693
 7069UDC     C877756   3.071   0.589  13.961 -0.7547  0.4810  0.2882
 7069UDC     C977757   3.049   0.689  14.070 -0.3256  0.5753 -0.1918
 7069UDC    C1077758   2.933   0.790  14.054  0.1169  0.7580 -0.5977
 7069UDC    C1177759   2.931   0.906  14.157  0.0593  0.2430  0.1241
 7070UDC     C177760  15.799  11.882   0.328  0.9136  1.1819 -0.1533
 7070UDC     C277761  15.833  11.833   0.185 -0.4508 -0.0267 -0.8090
 7070UDC     C377762  15.770  11.698   0.165 -0.2519  0.7616  0.1656
 7070UDC     C477763  15.615  11.691   0.149  0.6217  0.6476 -0.2427
 7070UDC     C577764  15.580  11.591   0.034  0.0886 -0.1903  0.2137
 7070UDC     C677765  15.435  11.592   0.003  0.2253  1.0008  0.3767
 7070UDC     C777766  15.342  11.469   0.039  0.6268  1.3671  0.1029
 7070UDC     C877767  15.195  11.497   0.092  0.1223 -0.1785  0.2688
 7070UDC     C977768  15.105  11.542  -0.025 -0.4417  0.5885  1.2127
 7070UDC    C1077769  14.960  11.575   0.016  0.3627  0.0844  0.0518
 7070UDC    C1177770  14.972  11.684   0.122  0.7084 -0.7340  0.5714
 7071UDC     C177771  10.449  19.235   4.976  0.4864  0.3311 -0.3507
 7071UDC     C277772  10.532  19.317   4.869  0.8328  0.4058 -0.0332
 7071UDC     C377773  10.680  19.333   4.912 -0.0306 -0.5511  0.2157
 7071UDC     C477774  10.727  19.480   4.897 -0.1274 -0.0810 -0.6237
 7071UDC     C577775  10.874  19.507   4.931  0.3215  0.1273  0.4414
 7071UDC     C677776  10.905  19.659   4.951  0.4668 -0.1138  0.8080
 7071UDC     C777777  11.054  19.676   5.001  1.5481 -0.8756  0.2906
 7071UDC     C877778  11.120  19.559   5.071 -0.4167  0.6619 -0.4533
 7071UDC     C977779  11.271  19.581   5.083 -0.0682  0.2677 -1.2593
 7071UDC    C1077780  11.320  19.688   5.184 -0.0893  1.0294 -1.1674
 7071UDC    C1177781  11.337  19.629   5.326  0.8801 -0.2319  1.0906
 7072UDC     C177782   8.017  14.293   4.407 -0.2046 -0.5061 -0.2084
 7072UDC     C277783   7.918  14.325   4.287 -0.0085  0.2317  0.0772
 7072UDC     C377784   7.857  14.209   4.214 -0.1722 -0.3825 -0.1493
 7072UDC     C477785   7.947  14.086   4.226  0.7022  0.9919  0.6533
 7072UDC     C577786   7.858  13.974   4.158 -0.2761 -0.6258 -0.2395
 7072UDC     C677787   7.909  13.827   4.153 -0.5884 -0.5149 -0.9004
 7072UDC     C777788   7.981  13.778   4.273 -0.9999 -0.1835 -0.1515
 7072UDC     C877789   7.999  13.630   4.264 -0.5936 -0.3870 -0.4180
 7072UDC     C977790   8.100  13.579   4.375  0.2523 -0.3181 -0.9878
 7072UDC    C1077791   8.032  13.498   4.486 -0.6471  1.0234 -0.0891
 7072UDC    C1177792   7.960  13.374   4.427  0.9311 -0.1831 -0.0369
 7073UDC     C177793   1.722  18.512   9.306 -0.1039 -0.2686  0.5715
 7073UDC     C277794   1.665  18.615   9.405  0.5619  0.1606  0.0898
 7073UDC     C377795   1.699  18.767   9.391  1.2581 -0.4855  0.0738
 7073UDC     C477796   1.611  18.871   9.475 -0.6230  0.0048 -0.0667
 7073UDC     C577797   1.610  18.843   9.627 -0.2089  0.6367  0.4264
 7073UDC     C677798   1.709  18.941   9.676  0.0483 -0.2537 -0.3366
 7073UDC     C777799   1.724  18.931   9.833 -0.0796 -0.5299 -0.1437
 7073UDC     C877800   1.834  19.006   9.915 -0.5887  0.1683 -0.0282
 7073UDC     C977801   1.961  18.920   9.924  1.0664  0.0903  0.1735
 7073UDC    C1077802   1.946  18.815  10.037 -0.0417  0.2780  0.4078
 7073UDC    C1177803   2.034  18.691  10.044 -0.6571 -0.1201 -0.5080
 7074UDC     C177804   4.532  15.925  12.783  0.0698  0.1645  0.0327
 7074UDC     C277805   4.480  15.886  12.919 -0.2199 -1.1516  0.0077
 7074UDC     C377806   4.514  16.001  13.013 -1.0440 -0.7544  0.3709
 7074UDC     C477807   4.506  15.953  13.153 -0.3094  0.5584  0.0808
 7074UDC     C577808   4.470  16.066  13.245  1.1842 -0.2533 -0.3130
 7074UDC     C677809   4.572  16.177  13.279 -0.1100  0.5588  0.5526
 7074UDC     C777810   4.500  16.285  13.357 -0.9873  0.2161 -0.1474
 7074UDC     C877811   4.605  16.398  13.390  0.1884  0.3630 -0.3150
 7074UDC     C977812   4.702  16.430  13.276  0.1928 -0.0651 -0.1680
 7074UDC    C1077813   4.755  16.573  13.256 -0.6261  0.1452 -0.1822
 7074UDC    C1177814   4.781  16.659  13.382  0.6764 -0.0093 -0.4639
 7075UDC     C177815  12.729  11.026   9.801  0.0110 -0.4163  1.0137
 7075UDC     C277816  12.837  10.925   9.824 -0.5404  0.1871  0.6947
 7075UDC     C377817  12.785  10.831   9.934  1.4273  0.4742 -0.1744
 7075UDC     C477818  12.885  10.764  10.025  0.2020 -0.4667  0.4329
 7075UDC     C577819  12.950  10.637   9.979 -1.3204  0.5120  0.1431
 7075UDC     C677820  13.077  10.618  10.068  0.5774  0.4686  0.7009
 7075UDC     C777821  13.168  10.497  10.054 -0.2241 -0.9091 -0.0994
 7075UDC     C877822  13.289  10.527  10.145 -0.5481  0.1897 -0.1976
 7075UDC     C977823  13.383  10.406  10.122  0.0832  1.0408  0.4383
 7075UDC    C1077824  13.327  10.263  10.085  1.2174 -1.6391 -0.4753
 7075UDC    C1177825  13.423  10.151  10.049 -0.1250  0.0707 -0.0067
 7076UDC     C177826  15.115   2.571   2.151  0.0612 -1.1179 -0.0612
 7076UDC     C277827  15.080   2.503   2.282 -0.4460  0.4025  0.8919
 7076UDC     C377828  15.165   2.559   2.398  0.9156 -0.2449  0.8820
 7076UDC     C477829  15.304   2.496   2.390 -1.0076 -0.7341 -1.4417
 7076UDC     C577830  15.295   2.345   2.427 -1.5421  0.3885 -0.2351
 7076UDC     C677831  15.432   2.274   2.450 -1.2572  1.1263  0.0679
 7076UDC     C777832  15.453   2.119   2.446 -0.0840 -0.9196 -0.4313
 7076UDC     C877833  15.496   2.076   2.310 -0.1824  0.6475 -0.3588
 7076UDC     C977834  15.402   2.067   2.188  0.8773 -0.1671 -0.9345
 7076UDC    C1077835  15.416   1.965   2.074  0.3895 -0.9913  1.1501
 7076UDC    C1177836  15.403   1.816   2.116 -0.8719  0.0256  0.1615
 7077UDC     C177837  18.370  12.432  18.964  0.8255  0.2799 -0.8447
 7077UDC     C277838  18.471  12.414  19.079  0.0918 -0.1133  0.6413
 7077UDC     C377839  18.505  12.268  19.117  0.0140  0.0905 -0.2587
 7077UDC     C477840  18.636  12.271  19.197 -0.0083  0.3112  0.3054
 7077UDC     C577841  18.701  12.134  19.194  0.9609  0.2357  0.2610
 7077UDC     C677842  18.835  12.106  19.268  0.0693  0.4165 -0.0913
 7077UDC     C777843  18.820  12.106  19.424  0.5560  0.4424 -0.1074
 7077UDC     C877844  18.796  11.964  19.476 -1.1807  0.2310  0.7747
 7077UDC     C977845  18.849  11.955  19.620  0.3658  0.0846 -1.1378
 7077UDC    C1077846  18.800  11.821  19.681 -0.6880 -0.3784 -0.4035
 7077UDC    C1177847  18.827  11.686  19.603 -1.4798 -0.7416 -0.3029
 7078UDC     C177848   3.071  13.971   0.848 -1.2692 -0.5095 -0.5221
 7078UDC     C277849   3.181  14.019   0.946  1.0238  0.4292 -0.4553
 7078UDC     C377850   3.314  14.049   0.880 -1.1081  0.4868 -0.0568
 7078UDC     C477851   3.409  14.151   0.957  0.2016  0.6872  0.3759
 7078UDC     C577852   3.440  14.099   1.092 -0.6943  0.2715  0.3650
 7078UDC     C677853   3.579  14.149   1.148 -0.2182  0.4645 -0.8831
 7078UDC     C777854   3.623  14.108   1.290 -1.1410 -0.4623 -0.7537
 7078UDC     C877855   3.758  14.143   1.361  0.3708  0.7248  0.5976
 7078UDC     C977856   3.792  14.113   1.504  0.8289 -0.0603 -0.5915
 7078UDC    C1077857   3.935  14.066   1.513 -0.5819  0.5125  0.2141
 7078UDC    C1177858   3.946  13.958   1.411 -0.2808  0.1444 -0.1935
 7079UDC     C177859  13.654  16.390   5.411 -0.4166  0.3069 -0.6001
 7079UDC     C277860  13.531  16.301   5.438  0.6515  0.7653  0.1608
 7079UDC     C377861  13.560  16.154   5.473 -0.6986  0.3594  0.8419
 7079UDC     C477862  13.642  16.136   5.603  0.5990 -0.5931  0.0706
 7079UDC     C577863  13.551  16.164   5.727 -0.3449  0.1966  0.0283
 7079UDC     C677864  13.631  16.141   5.859 -0.0621  0.2610  0.6053
 7079UDC     C777865  13.562  16.203   5.984 -0.7385  0.8546  0.1642
 7079UDC     C877866  13.468  16.320   5.973 -0.0385  0.9435  0.6877
 7079UDC     C977867  13.413  16.392   6.094 -0.3600 -0.5116  0.4411
 7079UDC    C1077868  13.279  16.442   6.039  0.1875  0.2137 -0.3697
 7079UDC    C1177869  13.197  16.505   6.149  0.1758  0.1641  0.3653
 7080UDC     C177870   9.370  10.296  11.621 -0.3680  0.3879 -0.5402
 7080UDC     C277871   9.307  10.227  11.741  0.6350  0.9461 -0.9594
 7080UDC     C377872   9.164  10.172  11.725  0.4143  0.2837  0.2463
 7080UDC     C477873   9.052  10.274  11.718  0.4778 -0.7098 -0.2000
 7080UDC     C577874   8.907  10.215  11.717  0.3588  0.3372  0.1213
 7080UDC     C677875   8.812  10.311  11.641  0.2236 -0.6490  0.1182
 7080UDC     C777876   8.675  10.250  11.675  0.6410 -0.7550  1.2979
 7080UDC     C877877   8.551  10.339  11.655  0.1146  1.0898  0.1314
 7080UDC     C977878   8.417  10.275  11.699 -0.7531 -0.4427 -0.2747
 7080UDC    C1077879   8.291  10.368  11.707 -0.4232  0.4636  1.8829
 7080UDC    C1177880   8.192  10.344  11.821 -0.1661 -0.1769  0.1242
 7081UDC     C177881   7.680  18.665   5.742  0.2686  0.2298  0.5302
 7081UDC     C277882   7.762  18.534   5.712  1.5215  0.1095  0.5871
 7081UDC     C377883   7.874  18.571   5.622 -1.2092  0.4158  0.8837
 7081UDC     C477884   7.992  18.652   5.676  0.6484  0.7430  0.2662
 7081UDC     C577885   8.086  18.705   5.569 -0.3079  0.4098  0.0072
 7081UDC     C677886   8.072  18.856   5.538 -0.4233  0.0542  0.9030
 7081UDC     C777887   8.099  18.929   5.670  0.5431  0.5231  0.0208
 7081UDC     C877888   8.047  19.073   5.664  0.4325 -0.7747 -0.2616
 7081UDC     C977889   8.102  19.151   5.790 -0.1078  0.0877 -0.2704
 7081UDC    C1077890   8.074  19.298   5.818 -0.5320 -1.2387 -0.1874
 7081UDC    C1177891   8.075  19.368   5.669  0.8816 -0.9699  0.1960
 7082UDC     C177892  14.975   1.672  18.258 -0.2480  0.1783 -0.0834
 7082UDC     C277893  14.862   1.765  18.208  0.2418  0.5917 -0.5066
 7082UDC     C377894  14.778   1.697  18.094 -0.3380  0.2351  0.0073
 7082UDC     C477895  14.653   1.776  18.073 -0.9040 -0.2965 -0.4420
 7082UDC     C577896  14.597   1.731  17.933  0.0682 -1.7550 -0.2896
 7082UDC     C677897  14.470   1.650  17.927  0.3199  0.2534 -0.8860
 7082UDC     C777898  14.457   1.495  17.896  1.3912 -0.1042  0.7299
 7082UDC     C877899  14.562   1.436  17.983 -0.4123  0.1149 -0.4261
 7082UDC     C977900  14.624   1.313  17.895  1.2290 -0.4889 -0.5174
 7082UDC    C1077901  14.778   1.292  17.900 -1.3229  0.7092  0.0456
 7082UDC    C1177902  14.845   1.246  18.030 -0.5765  0.2161 -0.0812
 7083UDC     C177903   4.106  11.774  10.240 -0.6838  0.5531 -0.2357
 7083UDC     C277904   4.116  11.906  10.302  0.2263 -1.1074  1.5430
 7083UDC     C377905   4.151  12.025  10.209 -0.0820  0.7035  0.7625
 7083UDC     C477906   4.171  12.144  10.308 -1.0656 -0.6889  0.4446
 7083UDC     C577907   4.242  12.268  10.247 -0.8618  0.3902  0.3814
 7083UDC     C677908   4.392  12.276  10.205 -0.4386 -0.1351  1.0304
 7083UDC     C777909   4.438  12.202  10.071  0.5214  0.0570 -0.6601
 7083UDC     C877910   4.422  12.283   9.938 -0.3943 -0.1485 -0.5284
 7083UDC     C977911   4.484  12.202   9.830  0.9762 -0.0386 -0.0287
 7083UDC    C1077912   4.616  12.266   9.793  0.4516 -0.5090 -0.4010
 7083UDC    C1177913   4.641  12.282   9.639 -0.5697  0.1394 -0.2830
 7084UDC     C177914   1.859  12.089  15.757  0.6071 -0.9146 -0.1256
 7084UDC     C277915   1.753  12.112  15.870  0.2711  0.3313 -0.1311
 7084UDC     C377916   1.784  12.036  15.998 -2.0085 -0.5448  0.1859
 7084UDC     C477917   1.698  12.033  16.121  0.2253 -0.6433  0.5348
 7084UDC     C577918   1.707  12.158  16.205 -0.6407  0.2528 -0.8949
 7084UDC     C677919   1.586  12.186  16.289  0.2265 -0.3559 -0.4395
 7084UDC     C777920   1.587  12.150  16.440 -1.0534  0.3876 -1.0287
 7084UDC     C877921   1.705  12.231  16.510  0.0899 -0.6533  0.2221
 7084UDC     C977922   1.726  12.148  16.625 -0.2692 -0.1268 -0.2257
 7084UDC    C1077923   1.876  12.122  16.638 -0.1195 -0.2791 -2.1080
 7084UDC    C1177924   1.968  12.078  16.513 -0.1976 -0.3745  0.1335
 7085UDC     C177925   8.348  12.852   5.741 -0.4798 -0.7119  0.2471
 7085UDC     C277926   8.405  12.714   5.687  0.0799  0.7612 -0.1007
 7085UDC     C377927   8.316  12.592   5.661 -0.3247  0.6030 -0.3391
 7085UDC     C477928   8.309  12.475   5.773 -0.0053 -0.5719  0.3618
 7085UDC     C577929   8.384  12.481   5.900 -0.3542 -0.6795  0.1522
 7085UDC     C677930   8.542  12.458   5.887 -0.3523 -0.3816 -0.3520
 7085UDC     C777931   8.639  12.490   6.007  1.0454 -1.3571  0.0546
 7085UDC     C877932   8.648  12.653   6.010 -0.0060 -0.4855  0.2439
 7085UDC     C977933   8.536  12.725   6.094 -0.0687  0.4043 -0.6000
 7085UDC    C1077934   8.530  12.873   6.068 -0.2985 -0.7289 -0.5718
 7085UDC    C1177935   8.400  12.932   6.133 -0.5130 -0.1386 -0.5839
 7086UDC     C177936   9.932   4.962  17.264 -0.4398  0.1645 -0.5856
 7086UDC     C277937  10.067   4.889  17.263 -0.0207 -1.0200  0.0437
 7086UDC     C377938  10.154   4.950  17.370  0.4229 -0.6764 -0.1206
 7086UDC     C477939  10.281   4.879  17.412 -0.2249  0.7984 -1.1637
 7086UDC     C577940  10.396   4.833  17.320 -0.3345 -0.0443  0.1880
 7086UDC     C677941  10.525   4.758  17.374 -0.1009 -0.7760 -0.7545
 7086UDC     C777942  10.625   4.866  17.417  0.6118 -0.5872 -0.4013
 7086UDC     C877943  10.660   4.890  17.568 -0.8039  0.2712 -0.0393
 7086UDC     C977944  10.799   4.840  17.610  0.4851 -0.3533 -0.5296
 7086UDC    C1077945  10.917   4.943  17.587  0.3318 -0.8555 -0.3307
 7086UDC    C1177946  10.880   5.086  17.633 -0.3233 -0.5604 -0.2678
 7087UDC     C177947   2.538   0.076   7.092  0.1183 -0.1855 -0.8276
 7087UDC     C277948   2.550   0.001   7.232 -0.3312 -0.3665 -0.6309
 7087UDC     C377949   2.473   0.056   7.357 -0.4210 -0.4435 -1.0842
 7087UDC     C477950   2.476  -0.053   7.470  0.2355 -0.6961  0.6701
 7087UDC     C577951   2.420  -0.004   7.605  1.1520  0.4897  0.3066
 7087UDC     C677952   2.265   0.014   7.621 -0.1920 -0.1201 -0.3927
 7087UDC     C777953   2.221   0.086   7.749 -0.9020 -0.1085  0.6348
 7087UDC     C877954   2.064   0.080   7.766 -0.7868  0.2107 -0.1316
 7087UDC     C977955   2.023   0.119   7.911 -0.0972  0.6834  0.1423
 7087UDC    C1077956   2.080   0.043   8.033  0.0335  0.4241  0.1508
 7087UDC    C1177957   1.986   0.039   8.162 -0.5271 -0.6480 -0.0877
 7088UDC     C177958  17.239  16.088  11.369  0.1195 -0.1158 -0.0973
 7088UDC     C277959  17.218  16.235  11.315  0.3966 -0.3817  1.3330
 7088UDC     C377960  17.265  16.356  11.391 -1.1419 -0.0344 -0.2052
 7088UDC     C477961  17.388  16.426  11.319  0.9197  0.2391 -0.5411
 7088UDC     C577962  17.472  16.518  11.408 -1.0827 -0.0507 -0.3607
 7088UDC     C677963  17.590  16.455  11.481 -0.7581  1.5191  0.3455
 7088UDC     C777964  17.697  16.558  11.531  0.9713  0.0644  0.3632
 7088UDC     C877965  17.653  16.682  11.607  0.1035  0.7719 -0.6494
 7088UDC     C977966  17.771  16.752  11.670 -0.9443  0.6337 -0.1937
 7088UDC    C1077967  17.870  16.650  11.744  1.2376  0.0749  0.9452
 7088UDC    C1177968  17.990  16.702  11.830  0.3221  0.9467  0.2992
 7089UDC     C177969  16.928   0.440   4.559 -0.4558 -0.3096 -0.2894
 7089UDC     C277970  16.981   0.564   4.636 -0.5621  0.0552  0.4199
 7089UDC     C377971  16.942   0.605   4.776 -1.1332  0.2218 -0.3869
 7089UDC     C477972  16.788   0.584   4.805 -0.8205  0.3263 -0.0104
 7089UDC     C577973  16.759   0.611   4.950  0.3865  0.7645 -0.6500
 7089UDC     C677974  16.820   0.509   5.050  0.7366 -0.4339  0.0094
 7089UDC     C777975  16.747   0.387   5.000 -0.6569  0.4833  1.0553
 7089UDC     C877976  16.778   0.245   5.046  0.6763  0.0447  0.5312
 7089UDC     C977977  16.714   0.139   4.950 -0.1571 -1.5420 -0.6043
 7089UDC    C1077978  16.566   0.119   4.972  0.9971 -0.4493  0.1776
 7089UDC    C1177979  16.519  -0.007   4.898 -0.6346  0.8463 -0.5132
 7090UDC     C177980  18.540   6.098   9.070  0.0012  0.3125  0.8836
 7090UDC     C277981  18.407   6.009   9.042  0.0957 -0.2898 -0.8100
 7090UDC     C377982  18.286   6.098   9.021 -0.4261 -0.2892  0.7147
 7090UDC     C477983  18.312   6.212   8.931 -0.1475  0.0118  0.4416
 7090UDC     C577984  18.193   6.291   8.881  0.1667  0.8214 -0.1325
 7090UDC     C677985  18.129   6.363   8.991 -0.5213  1.1671 -0.2894
 7090UDC     C777986  18.032   6.481   8.967  0.2350  1.3201 -0.2855
 7090UDC     C877987  18.003   6.564   9.097  0.7624 -0.3516  0.6370
 7090UDC     C977988  17.886   6.506   9.181 -0.2407 -0.0403 -0.6092
 7090UDC    C1077989  17.833   6.606   9.285 -1.1601  0.5160  0.6819
 7090UDC    C1177990  17.730   6.716   9.245 -0.0386  1.4456 -0.0054
 7091UDC     C177991  14.710   0.331  11.122  0.0666  0.0812  0.7521
 7091UDC     C277992  14.760   0.368  11.259  0.4615  0.6240  0.2010
 7091UDC     C377993  14.667   0.308  11.363  0.5631  0.3462  0.0872
 7091UDC     C477994  14.659   0.392  11.491 -0.6426 -0.1477 -0.0379
 7091UDC     C577995  14.579   0.516  11.463  0.5412 -0.0061 -0.6779
 7091UDC     C677996  14.434   0.492  11.421  0.7335  0.4618  0.5629
 7091UDC     C777997  14.349   0.610  11.389 -1.0613 -0.5027 -0.6845
 7091UDC     C877998  14.215   0.571  11.331  0.2621  0.5515 -0.3880
 7091UDC     C977999  14.148   0.453  11.408 -0.0518  0.6486 -0.7504
 7091UDC    C1078000  14.074   0.486  11.539 -0.5139  0.3249 -0.2213
 7091UDC    C1178001  14.164   0.486  11.666  0.7874 -0.0156 -1.6347
 7092UDC     C178002   8.656   1.024  10.454  0.6000  0.1267 -0.0043
 7092UDC     C278003   8.632   0.881  10.419 -0.1220 -0.1331 -0.4130
 7092UDC     C378004   8.527   0.865  10.310 -0.0439  0.2939  0.6601
 7092UDC     C478005   8.416   0.974  10.310  0.4643 -1.2251  0.8218
 7092UDC     C578006   8.309   0.984  10.204 -0.4120  0.0867  0.3730
 7092UDC     C678007   8.201   1.096  10.216 -0.3859  0.8239 -0.4974
 7092UDC     C778008   8.253   1.233  10.212 -0.0777 -0.2625 -1.2978
 7092UDC     C878009   8.165   1.326  10.299  0.2133 -0.6034  0.6131
 7092UDC     C978010   8.190   1.478  10.291 -0.7768 -0.0507 -0.2052
 7092UDC    C1078011   8.106   1.561  10.384 -0.4416  0.5671 -0.1845
 7092UDC    C1178012   8.151   1.709  10.388 -0.2185  0.2489 -0.3059
 7093UDC     C178013   6.721   0.192   5.801  0.2176  0.0951  0.1900
 7093UDC     C278014   6.672   0.068   5.877 -0.2948 -0.3061  0.3245
 7093UDC     C378015   6.547  -0.004   5.823  0.0357 -0.6328 -0.0055
 7093UDC     C478016   6.416   0.068   5.805 -0.5338  0.1940 -0.0331
 7093UDC     C578017   6.304  -0.012   5.746  0.2126  0.6055 -0.6690
 7093UDC     C678018   6.208   0.084   5.685  0.1128 -0.7023  0.0336
 7093UDC     C778019   6.093   0.019   5.615  0.9201  0.1657 -1.2963
 7093UDC     C878020   5.997  -0.052   5.709  0.1952  1.4055 -0.5382
 7093UDC     C978021   5.933   0.036   5.815  0.2291 -0.4959 -0.3925
 7093UDC    C1078022   5.903   0.192   5.777 -0.8340  0.9350  0.2912
 7093UDC    C1178023   5.803   0.243   5.882 -0.9512 -0.0053  0.0083
 7094UDC     C178024  12.361   8.426  19.343  0.1783  0.7023  0.9533
 7094UDC     C278025  12.434   8.392  19.206 -0.7516  0.2192  0.4087
 7094UDC     C378026  12.346   8.386  19.079 -1.4551  0.6680 -0.3574
 7094UDC     C478027  12.427   8.309  18.977 -0.9555 -0.0177 -0.0265
 7094UDC     C578028  12.396   8.308  18.824  0.7710 -0.7890 -0.5181
 7094UDC     C678029  12.406   8.435  18.740  0.2768  1.4614 -0.1769
 7094UDC     C778030  12.309   8.415  18.617 -0.9971  0.5725 -0.0440
 7094UDC     C878031  12.165   8.446  18.665 -0.7423 -0.6427 -0.7812
 7094UDC     C978032  12.063   8.453  18.548  0.3423  0.3730  0.1009
 7094UDC    C1078033  12.054   8.584  18.461  0.4996  0.8197 -0.0903
 7094UDC    C1178034  11.926   8.604  18.377 -0.5515 -0.2355 -0.2902
 7095UDC     C178035   2.235   1.207  19.898 -0.7758 -0.0077  0.5032
 7095UDC     C278036   2.151   1.179  19.768 -0.2209 -0.3541  0.2334
 7095UDC     C378037   2.167   1.057  19.678  0.7001  1.0424 -0.4381
 7095UDC     C478038   2.103   0.929  19.730 -0.2587  0.6454 -0.0021
 7095UDC     C578039   2.087   0.805  19.641  0.5648  1.4078  0.7362
 7095UDC     C678040   2.020   0.706  19.731 -1.1858 -0.3004  0.0228
 7095UDC     C778041   2.071   0.683  19.873  0.3594  0.3557  0.1197
 7095UDC     C878042   1.977   0.601  19.958 -0.4513  1.2844  1.0371
 7095UDC     C978043   1.829   0.630  19.939  1.0608 -0.1243  0.0620
 7095UDC    C1078044   1.720   0.535  19.997 -0.6350  0.4875 -0.1662
 7095UDC    C1178045   1.744   0.392  19.954  0.5035  0.9610 -0.0310
 7096UDC     C178046   9.084  17.144  17.082  1.0892  0.8622 -0.9147
 7096UDC     C278047   8.961  17.056  17.052 -0.8665 -0.5056 -0.3736
 7096UDC     C378048   8.897  17.065  16.914 -0.4294 -0.3095  0.1577
 7096UDC     C478049   9.003  17.032  16.811  0.2860 -0.7036  0.3851
 7096UDC     C578050   8.980  17.089  16.669 -0.7039 -0.2175  0.9211
 7096UDC     C678051   8.939  17.237  16.675  0.0546 -0.4887 -0.7209
 7096UDC     C778052   8.931  17.315  16.547  0.2297  0.4168 -0.1398
 7096UDC     C878053   8.888  17.461  16.562 -0.5770 -1.7110 -0.9849
 7096UDC     C978054   8.857  17.555  16.439 -0.5499  0.0328 -0.3072
 7096UDC    C1078055   8.711  17.583  16.410 -0.9182 -0.1469  0.7567
 7096UDC    C1178056   8.618  17.640  16.518  0.0066  0.0032 -0.0118
 7097UDC     C178057  19.014   4.591  11.701  0.4963  1.3739 -0.2345
 7097UDC     C278058  19.009   4.481  11.584 -0.3682 -0.7816 -0.2918
 7097UDC     C378059  19.151   4.445  11.533 -0.6536  0.8862  0.7959
 7097UDC     C478060  19.148   4.330  11.429  0.1660  0.4359  0.2852
 7097UDC     C578061  19.284   4.293  11.371  0.4171  0.0272 -0.2882
 7097UDC     C678062  19.321   4.147  11.366  0.8637  0.0952 -0.8993
 7097UDC     C778063  19.417   4.101  11.262  0.0167  0.2407  1.1518
 7097UDC     C878064  19.491   3.957  11.276  1.2715 -0.4751  1.0371
 7097UDC     C978065  19.612   3.943  11.175 -0.1558 -0.6905  0.4026
 7097UDC    C1078066  19.709   4.064  11.161  1.3077 -0.0889 -0.3780
 7097UDC    C1178067  19.775   4.111  11.289 -0.6827 -0.0861 -0.6462
 7098UDC     C178068  15.438   5.831  11.360  0.3692  0.0072 -0.0355
 7098UDC     C278069  15.447   5.677  11.321  0.5677  0.5050 -0.3653
 7098UDC     C378070  15.393   5.580  11.429  1.0991 -1.2215 -0.0016
 7098UDC     C478071  15.446   5.595  11.573  0.5596  0.6454  0.2650
 7098UDC     C578072  15.370   5.527  11.688  0.2506  0.7248 -0.4678
 7098UDC     C678073  15.468   5.526  11.807  0.2761  0.9960  1.8167
 7098UDC     C778074  15.385   5.518  11.935 -0.8977  0.0088 -0.6703
 7098UDC     C878075  15.488   5.482  12.045  1.4044  0.4228  0.7681
 7098UDC     C978076  15.425   5.475  12.187 -0.2851 -1.5173  0.4381
 7098UDC    C1078077  15.319   5.583  12.225 -0.0317 -0.2831  0.1934
 7098UDC    C1178078  15.238   5.554  12.350  0.2254  0.4185  0.4611
 7099UDC     C178079   8.727  10.913   3.596  0.0155  0.9023 -0.0600
 7099UDC     C278080   8.619  10.887   3.488 -0.5037  0.5089 -0.5101
 7099UDC     C378081   8.475  10.940   3.495  0.6369 -0.5003 -0.0077
 7099UDC     C478082   8.440  11.034   3.376 -0.6502  0.8042  0.3469
 7099UDC     C578083   8.515  11.172   3.359  0.7746  0.0453  0.3806
 7099UDC     C678084   8.465  11.259   3.235  1.2295 -1.2032 -0.2801
 7099UDC     C778085   8.502  11.405   3.233  0.4147 -0.7479  0.0344
 7099UDC     C878086   8.630  11.418   3.327 -0.3008  1.7972 -0.2032
 7099UDC     C978087   8.617  11.539   3.427  0.5179  0.7220  1.3078
 7099UDC    C1078088   8.745  11.604   3.463 -0.3828 -0.5510 -0.0960
 7099UDC    C1178089   8.716  11.722   3.560 -0.8233  0.0468  0.1077
 7100UDC     C178090  11.753  10.415   0.488 -0.2429  0.2820 -0.9384
 7100UDC     C278091  11.642  10.322   0.556 -0.4971 -1.0701  0.0554
 7100UDC     C378092  11.501  10.325   0.507 -0.3428  0.2921  0.5901
 7100UDC     C478093  11.406  10.220   0.571 -0.2275 -0.0901  1.1282
 7100UDC     C578094  11.350  10.086   0.501  0.1098  0.6644  0.3946
 7100UDC     C678095  11.459   9.986   0.455  0.6814 -0.1852  0.3973
 7100UDC     C778096  11.415   9.841   0.408  0.6831 -0.0190 -0.0908
 7100UDC     C878097  11.264   9.810   0.427 -0.3892 -0.4767 -0.0492
 7100UDC     C978098  11.221   9.662   0.395 -0.9701 -1.5264 -0.2899
 7100UDC    C1078099  11.077   9.632   0.419  0.0278  0.1507 -0.4603
 7100UDC    C1178100  11.031   9.509   0.339  0.3141  0.3719  0.5890
 7101UDC     C178101  15.892  14.116   4.966 -0.4740 -0.2088  0.8003
 7101UDC     C278102  15.963  13.976   4.992 -0.1920  0.2520 -0.0600
 7101UDC     C378103  15.942  13.914   5.134  0.4313  0.3270 -0.1579
 7101UDC     C478104  15.816  13.819   5.155 -0.6995  0.1744  0.9021
 7101UDC     C578105  15.846  13.674   5.108  1.7180 -0.6172  0.4790
 7101UDC     C678106  15.976  13.604   5.134 -0.8841 -0.0144  0.3955
 7101UDC     C778107  15.943  13.465   5.184 -0.5865  0.2368  0.4902
 7101UDC     C878108  15.883  13.453   5.322  0.2814  0.1799  0.3128
 7101UDC     C978109  15.946  13.543   5.434 -0.3289  0.3696  0.1708
 7101UDC    C1078110  15.868  13.529   5.566  0.5758  0.0880  1.3609
 7101UDC    C1178111  15.923  13.625   5.668  0.1731  0.6920 -0.1374
 7102UDC     C178112  19.022  13.959   4.335  0.4438  0.6458  0.1026
 7102UDC     C278113  18.955  13.821   4.304  0.4532  0.0090 -0.0448
 7102UDC     C378114  19.031  13.714   4.218 -1.2643 -0.2266 -0.9762
 7102UDC     C478115  19.072  13.765   4.074  1.5878 -1.2119 -0.1546
 7102UDC     C578116  18.961  13.832   3.991 -0.3171  0.0295 -0.9868
 7102UDC     C678117  18.849  13.731   3.965  1.2716  0.2938 -0.7514
 7102UDC     C778118  18.889  13.641   3.845 -0.2192  0.1183 -0.6027
 7102UDC     C878119  18.803  13.514   3.843 -0.2260 -0.1497  0.3837
 7102UDC     C978120  18.656  13.521   3.802  0.5199 -0.4067  0.6301
 7102UDC    C1078121  18.594  13.389   3.843 -0.8329 -0.6033 -0.5732
 7102UDC    C1178122  18.449  13.380   3.900 -0.5386  0.8547  0.5916
 7103UDC     C178123  12.081   3.317  11.921  0.4125  0.9536  1.3345
 7103UDC     C278124  12.212   3.232  11.911  0.0979  0.9521 -0.8273
 7103UDC     C378125  12.318   3.255  11.799  0.5715 -0.1081  0.1967
 7103UDC     C478126  12.257   3.206  11.662 -1.0856  0.3384  0.0881
 7103UDC     C578127  12.334   3.101  11.587 -1.2420 -0.1616  0.8151
 7103UDC     C678128  12.409   3.166  11.463  0.2635 -0.5550  0.2139
 7103UDC     C778129  12.299   3.199  11.358  1.6210 -0.6002 -0.5856
 7103UDC     C878130  12.318   3.261  11.222 -0.4037 -0.7978 -0.0486
 7103UDC     C978131  12.311   3.155  11.118  0.4790 -1.0803  1.1976
 7103UDC    C1078132  12.370   3.015  11.137  0.4138  0.2421  0.5012
 7103UDC    C1178133  12.528   3.034  11.154  0.9455 -0.3470 -0.0389
 7104UDC     C178134  14.948  11.611   4.267  0.0657 -0.4858  0.5990
 7104UDC     C278135  14.940  11.614   4.109  0.6205 -0.4589 -0.1437
 7104UDC     C378136  14.900  11.757   4.043  0.7686  0.0511 -0.6393
 7104UDC     C478137  14.753  11.808   4.017 -0.1449  0.3775 -0.4409
 7104UDC     C578138  14.729  11.923   3.918  0.8550  0.5913 -0.1311
 7104UDC     C678139  14.822  12.043   3.926 -1.0115  1.1745  0.2123
 7104UDC     C778140  14.810  12.159   3.820  0.3366  0.0859 -0.3577
 7104UDC     C878141  14.854  12.127   3.678 -0.3346  0.3696 -1.1196
 7104UDC     C978142  14.851  12.244   3.577  0.9564  0.3186  0.9216
 7104UDC    C1078143  14.715  12.325   3.542  0.6097  0.2656 -0.8486
 7104UDC    C1178144  14.723  12.456   3.463  0.0317  0.8538  0.5594
 7105UDC     C178145   2.538   1.454  13.947 -0.3598 -0.7092 -0.7744
 7105UDC     C278146   2.515   1.347  13.841  0.6466 -1.1113  0.1753
 7105UDC     C378147   2.623   1.310  13.739 -0.1803 -0.9498  0.2071
 7105UDC     C478148   2.593   1.180  13.668 -0.2349 -0.0267 -0.4041
 7105UDC     C578149   2.679   1.061  13.713  0.2987  0.0798 -0.8423
 7105UDC     C678150   2.655   0.920  13.660 -1.2795 -0.0928 -0.4202
 7105UDC     C778151   2.738   0.796  13.701 -0.0252 -0.8198 -0.0966
 7105UDC     C878152   2.689   0.662  13.636  0.6645  0.0174 -1.5350
 7105UDC     C978153   2.562   0.609  13.705  0.1955  0.7469 -0.2533
 7105UDC    C1078154   2.555   0.455  13.723  0.6912 -1.6182  0.2706
 7105UDC    C1178155   2.661   0.407  13.821  0.3623 -0.6561  1.2381
 7106UDC     C178156   6.735  13.477   0.383 -0.0271  0.0896 -0.0204
 7106UDC     C278157   6.672  13.346   0.443  0.1157  0.4954  0.1062
 7106UDC     C378158   6.598  13.364   0.576 -0.9427 -0.0037  1.1643
 7106UDC     C478159   6.607  13.234   0.665 -0.8136 -0.2301  0.2706
 7106UDC     C578160   6.636  13.240   0.821  0.2772 -0.1516  0.1682
 7106UDC     C678161   6.543  13.339   0.888 -0.0438 -1.0111 -0.6333
 7106UDC     C778162   6.544  13.359   1.039 -0.2100  0.0609  0.0539
 7106UDC     C878163   6.684  13.327   1.098 -0.7494  0.2206  0.1385
 7106UDC     C978164   6.673  13.327   1.255  0.6653  0.9940  1.0796
 7106UDC    C1078165   6.801  13.340   1.339 -0.9521 -0.4779  0.4569
 7106UDC    C1178166   6.794  13.372   1.491  0.2874 -0.4190 -0.0110
 7107UDC     C178167   9.980  12.105   0.896 -0.5684  0.7517  0.5592
 7107UDC     C278168  10.035  12.072   1.035 -0.4466 -0.3679  0.3127
 7107UDC     C378169  10.124  11.959   1.013 -0.3100  0.2623 -0.2491
 7107UDC     C478170  10.252  12.003   0.937  0.7177  0.2069  0.3613
 7107UDC     C578171  10.360  12.092   1.001 -0.2751 -0.1214 -0.0813
 7107UDC     C678172  10.493  12.123   0.931  0.8226 -0.4423 -0.4851
 7107UDC     C778173  10.561  12.258   0.974 -0.2607  0.6422  0.3327
 7107UDC     C878174  10.699  12.294   0.922 -0.5112 -0.5186 -0.6287
 7107UDC     C978175  10.831  12.227   0.972 -0.0895 -1.1648  0.4930
 7107UDC    C1078176  10.845  12.073   0.985 -0.6727 -0.4884 -0.0356
 7107UDC    C1178177  10.983  12.019   1.029  0.5008 -1.6922 -0.7924
 7108UDC     C178178   2.151   5.192  14.996  0.1429 -0.4798 -0.1609
 7108UDC     C278179   2.132   5.042  15.012 -0.2265  0.6338  0.9881
 7108UDC     C378180   2.085   5.007  15.152  0.3584  0.4631 -0.5002
 7108UDC     C478181   1.947   5.065  15.187  0.9237  0.7537  0.0239
 7108UDC     C578182   1.845   4.968  15.265 -0.8112 -0.4703  1.1832
 7108UDC     C678183   1.718   5.006  15.339  0.1610  0.2855  0.1875
 7108UDC     C778184   1.620   5.099  15.262  2.0183  0.6653 -0.5339
 7108UDC     C878185   1.515   5.147  15.361 -0.1848  0.1294 -0.2897
 7108UDC     C978186   1.587   5.219  15.482 -0.4719  0.7703 -1.1596
 7108UDC    C1078187   1.682   5.333  15.437 -0.6570  0.0859  1.0476
 7108UDC    C1178188   1.759   5.434  15.524 -0.1794 -0.4312 -1.5374
 7109UDC     C178189  15.570   0.257  18.263 -0.0859 -0.9758  0.0496
 7109UDC     C278190  15.595   0.108  18.272  1.0231  0.4787  0.5683
 7109UDC     C378191  15.717   0.065  18.194 -0.4568 -0.2635  0.7027
 7109UDC     C478192  15.828  -0.018  18.272 -0.4727 -0.5392 -0.5094
 7109UDC     C578193  15.944   0.076  18.309  0.3540 -0.4127  0.6317
 7109UDC     C678194  16.009   0.139  18.183  0.6020 -1.3823 -0.5436
 7109UDC     C778195  16.052   0.281  18.208  0.2647 -0.9179 -1.0347
 7109UDC     C878196  15.929   0.379  18.208 -0.2970 -0.3421  0.2454
 7109UDC     C978197  15.947   0.530  18.211  0.4961 -1.0135  0.0576
 7109UDC    C1078198  15.815   0.606  18.187  0.0443 -0.2096  0.6078
 7109UDC    C1178199  15.839   0.754  18.137 -0.5733  0.3003 -0.2553
 7110UDC     C178200   9.857  18.184  17.508 -0.1143  0.3193 -0.8406
 7110UDC     C278201   9.895  18.249  17.368 -0.6095  0.9524  0.2941
 7110UDC     C378202  10.011  18.177  17.303 -0.0346  0.7543  0.0701
 7110UDC     C478203  10.060  18.216  17.156  1.0286  0.2757 -0.6429
 7110UDC     C578204  10.044  18.360  17.104 -0.0037 -0.6146 -0.2560
 7110UDC     C678205   9.898  18.407  17.070  0.1832  0.3258  0.3776
 7110UDC     C778206   9.905  18.538  16.988 -0.8654  0.5631  0.6753
 7110UDC     C878207   9.774  18.555  16.907  0.5076 -0.5539 -1.2097
 7110UDC     C978208   9.768  18.473  16.776  0.4834  0.6262  0.0475
 7110UDC    C1078209   9.651  18.479  16.668  0.1072  0.3542 -0.5656
 7110UDC    C1178210   9.614  18.615  16.607 -0.0421 -0.1172  0.7858
 7111UDC     C178211  17.949  19.811  14.776  0.6737  0.5491 -0.3288
 7111UDC     C278212  17.947  19.783  14.620 -0.3030 -0.8210 -0.6121
 7111UDC     C378213  17.860  19.888  14.554  1.2030  0.4165 -0.4271
 7111UDC     C478214  17.790  19.844  14.415 -0.9335 -1.5360  0.0953
 7111UDC     C578215  17.672  19.942  14.394  0.8662  0.0025  0.8707
 7111UDC     C678216  17.588  19.891  14.273 -1.1413  1.2007 -0.6077
 7111UDC     C778217  17.467  19.974  14.239 -0.1581 -0.1775 -0.1549
 7111UDC     C878218  17.438  19.952  14.090 -1.5839 -0.6729 -0.3342
 7111UDC     C978219  17.324  20.037  14.051  0.0704  0.3683  1.5745
 7111UDC    C1078220  17.358  20.182  14.093 -0.7363  0.2534 -0.1059
 7111UDC    C1178221  17.326  20.293  13.993 -0.8076  0.3216 -0.1617
 7112UDC     C178222  10.293  11.459   6.882 -1.1816 -0.1973  0.2810
 7112UDC     C278223  10.164  11.485   6.801  0.2992  0.0589  0.4181
 7112UDC     C378224  10.072  11.582   6.877  0.5674  1.0136  0.0534
 7112UDC     C478225  10.140  11.725   6.892  0.7086  0.1470 -0.5364
 7112UDC     C578226  10.077  11.824   6.990 -0.3374 -0.4799  0.1253
 7112UDC     C678227  10.144  11.962   6.990  0.2686  0.5474 -0.4238
 7112UDC     C778228  10.073  12.071   7.072  1.2969 -0.5811 -0.6353
 7112UDC     C878229   9.942  12.135   7.020  0.0575  0.9247  0.0446
 7112UDC     C978230   9.856  12.230   7.095  0.3007 -0.0924  0.1057
 7112UDC    C1078231   9.737  12.270   7.009 -0.1783  0.6127  0.1957
 7112UDC    C1178232   9.752  12.382   6.902 -0.5314 -0.0092 -0.4533
 7113UDC     C178233  18.101  12.814   3.600  0.5694 -0.9077  0.4261
 7113UDC     C278234  18.048  12.933   3.516 -0.8695 -0.0426  0.5113
 7113UDC     C378235  18.162  12.988   3.428 -0.9096  1.2398  0.5546
 7113UDC     C478236  18.115  13.078   3.307  0.8486  0.0786 -0.0613
 7113UDC     C578237  18.207  13.061   3.182 -0.9525 -0.1897 -0.3129
 7113UDC     C678238  18.360  13.105   3.205  0.4842  0.6823  0.3072
 7113UDC     C778239  18.460  13.093   3.092  0.2738  1.0555  0.6384
 7113UDC     C878240  18.602  13.127   3.144  0.2175 -0.3332 -0.3396
 7113UDC     C978241  18.625  13.087   3.286 -0.9272  1.5358  0.4447
 7113UDC    C1078242  18.766  13.107   3.351  0.4026 -0.0727  0.9185
 7113UDC    C1178243  18.814  13.256   3.348  0.2089 -0.2325 -1.0358
 7114UDC     C178244  16.042  15.369  10.040 -0.4965  0.2226 -0.9842
 7114UDC     C278245  16.068  15.416   9.899 -0.0324  0.1658 -0.6425
 7114UDC     C378246  16.172  15.527   9.902 -0.1054  0.3267  0.3429
 7114UDC     C478247  16.274  15.512  10.012 -1.4948  0.6462  1.0893
 7114UDC     C578248  16.410  15.573   9.966 -0.6589  0.3411  0.9144
 7114UDC     C678249  16.426  15.718   9.994 -0.2721 -0.6204  0.4107
 7114UDC     C778250  16.563  15.775   9.972  0.1943  0.2266  0.5676
 7114UDC     C878251  16.656  15.758  10.091  0.1624 -0.7570 -1.3991
 7114UDC     C978252  16.797  15.823  10.075  0.1772  0.3974  0.1249
 7114UDC    C1078253  16.879  15.838  10.201  0.0154  0.4479  1.1280
 7114UDC    C1178254  16.920  15.700  10.257 -0.2899  0.3692  1.4579
 7115UDC     C178255  15.855  16.833   6.425 -0.0576  0.4707 -0.0867
 7115UDC     C278256  15.773  16.967   6.420 -1.1058  0.3152 -0.3313
 7115UDC     C378257  15.673  16.984   6.305  0.3529 -0.4981 -0.4809
 7115UDC     C478258  15.620  17.123   6.276 -0.1622  0.2509 -0.2855
 7115UDC     C578259  15.527  17.091   6.161 -0.3916  0.1551  0.0535
 7115UDC     C678260  15.575  17.097   6.020 -0.9224 -1.2321  0.1235
 7115UDC     C778261  15.460  17.051   5.937  0.0440 -0.1763  0.4298
 7115UDC     C878262  15.478  17.063   5.784  0.5951  0.2884 -0.2673
 7115UDC     C978263  15.609  17.111   5.716  0.7268 -0.8920  0.0128
 7115UDC    C1078264  15.591  17.154   5.573 -0.0815 -0.1188 -0.6427
 7115UDC    C1178265  15.708  17.144   5.483 -0.4102  0.6659 -0.2970
 7116UDC     C178266  15.100   8.337   8.955  0.8152 -0.7895  0.4699
 7116UDC     C278267  15.015   8.384   9.077  1.1165 -0.9035  1.1692
 7116UDC     C378268  14.978   8.536   9.073  0.1401  0.2237  0.3384
 7116UDC     C478269  14.915   8.598   9.200 -1.2659  0.5731 -0.3913
 7116UDC     C578270  15.023   8.595   9.316 -0.0660  0.5116  0.9295
 7116UDC     C678271  14.964   8.592   9.458  0.4653  0.7887  0.1399
 7116UDC     C778272  15.088   8.584   9.545 -0.2782  0.4777 -0.3381
 7116UDC     C878273  15.073   8.496   9.676  0.0377 -0.3788  0.6937
 7116UDC     C978274  14.992   8.574   9.778  0.6497  0.1856  0.2312
 7116UDC    C1078275  14.959   8.492   9.899  0.0921  0.1996 -0.3359
 7116UDC    C1178276  14.882   8.586   9.995 -0.6653  1.0238  0.1854
 7117UDC     C178277   3.999   6.167   4.886 -0.8027  0.4772  0.4434
 7117UDC     C278278   3.891   6.118   4.787  0.9496  0.2149 -0.3370
 7117UDC     C378279   3.848   5.975   4.759 -0.1237  0.6772  0.8005
 7117UDC     C478280   3.772   5.940   4.633  0.7488 -0.1296 -0.3431
 7117UDC     C578281   3.774   5.794   4.590  0.6655  0.7953  0.5485
 7117UDC     C678282   3.724   5.783   4.438 -0.1376 -0.2765 -0.5937
 7117UDC     C778283   3.844   5.754   4.349 -0.4394 -0.9264  0.2730
 7117UDC     C878284   3.797   5.758   4.200 -1.0939  0.1832  0.5072
 7117UDC     C978285   3.920   5.748   4.110 -1.6596  0.1189  0.5310
 7117UDC    C1078286   4.018   5.634   4.152  1.0893 -0.2718  0.2522
 7117UDC    C1178287   4.148   5.664   4.080 -0.8982 -0.5787 -0.2944
 7118UDC     C178288   4.812  11.280  11.548 -0.1136 -0.8201 -0.5331
 7118UDC     C278289   4.690  11.183  11.536 -0.4141 -0.4917 -0.1006
 7118UDC     C378290   4.554  11.247  11.504  0.2033 -0.7741 -0.6418
 7118UDC     C478291   4.457  11.151  11.437 -1.0546 -0.0346 -1.2925
 7118UDC     C578292   4.317  11.212  11.449 -0.3226 -0.7067 -0.0057
 7118UDC     C678293   4.206  11.123  11.385  1.0757 -0.2979 -0.1854
 7118UDC     C778294   4.197  11.131  11.231  0.9509  0.2158  0.0123
 7118UDC     C878295   4.072  11.090  11.155  0.7379  0.2468 -0.2190
 7118UDC     C978296   4.072  11.146  11.008  0.1853  1.1269 -1.0686
 7118UDC    C1078297   4.193  11.092  10.927  0.3589 -0.4973  0.0190
 7118UDC    C1178298   4.173  11.146  10.788  0.8905  0.4790  0.0741
 7119UDC     C178299   8.094   8.177  19.014  0.0259  0.3526 -1.2483
 7119UDC     C278300   8.152   8.261  18.893  0.1574 -0.0673  0.0525
 7119UDC     C378301   8.042   8.335  18.816  0.7227 -0.1211  0.6071
 7119UDC     C478302   7.981   8.261  18.697  1.2942 -0.2417  0.8859
 7119UDC     C578303   8.091   8.239  18.587 -0.2755 -0.9174 -0.3498
 7119UDC     C678304   8.141   8.096  18.560  0.8498 -0.9910 -0.0252
 7119UDC     C778305   8.109   8.046  18.414  0.0080  0.1255 -0.4326
 7119UDC     C878306   8.239   8.005  18.330  0.4936  0.7323 -0.0581
 7119UDC     C978307   8.292   7.862  18.343 -0.5037  0.1195  0.3242
 7119UDC    C1078308   8.440   7.861  18.306 -0.3180  0.3368 -0.4136
 7119UDC    C1178309   8.532   7.789  18.411  0.4105  0.0164 -1.1435
 7120UDC     C178310  12.952  11.637  15.259 -0.0173  0.2025 -0.4926
 7120UDC     C278311  13.071  11.698  15.179  0.5450  0.8403 -0.1526
 7120UDC     C378312  13.130  11.825  15.235  0.7450 -0.1373  0.4837
 7120UDC     C478313  13.222  11.916  15.155  0.4442 -0.9918  0.1132
 7120UDC     C578314  13.227  12.059  15.200  0.3809  0.2458  0.4561
 7120UDC     C678315  13.331  12.152  15.141 -1.4979 -0.6531  0.3934
 7120UDC     C778316  13.279  12.243  15.029  0.3585 -0.0465 -1.0380
 7120UDC     C878317  13.129  12.247  15.026 -0.7941  0.7657 -0.8911
 7120UDC     C978318  13.090  12.356  14.930 -0.0267 -0.6289  0.3931
 7120UDC    C1078319  12.943  12.397  14.932  0.1561  0.4938 -0.4969
 7120UDC    C1178320  12.853  12.273  14.956  0.0704 -0.2416  0.1838
 7121UDC     C178321  12.031   0.105   8.018  0.4280 -0.3628 -0.4905
 7121UDC     C278322  12.172   0.177   8.018  1.1141 -0.1442 -0.0071
 7121UDC     C378323  12.206   0.219   7.871  0.8503 -0.4147 -0.5025
 7121UDC     C478324  12.344   0.275   7.872  0.3932  0.5489 -0.9230
 7121UDC     C578325  12.379   0.373   7.748  0.5041  1.0279  1.2012
 7121UDC     C678326  12.278   0.485   7.744 -1.0358  0.2145 -0.1615
 7121UDC     C778327  12.334   0.599   7.652  0.3062  1.2475 -0.3477
 7121UDC     C878328  12.273   0.736   7.665 -0.0198 -0.2714 -0.2919
 7121UDC     C978329  12.127   0.760   7.614 -0.8145  0.9798 -0.4827
 7121UDC    C1078330  12.009   0.684   7.680  0.0913  1.7488  0.5217
 7121UDC    C1178331  11.866   0.693   7.618 -0.1625 -0.6931 -1.4760
 7122UDC     C178332   7.796  10.955  11.325 -0.4861  0.1119  0.5962
 7122UDC     C278333   7.904  10.935  11.433 -0.0736 -0.4901  0.8294
 7122UDC     C378334   7.817  10.915  11.556 -0.5882  0.4572 -0.1916
 7122UDC     C478335   7.716  10.799  11.543 -0.1275  1.1394 -0.9334
 7122UDC     C578336   7.673  10.742  11.685 -0.1036  0.2993  1.4188
 7122UDC     C678337   7.525  10.690  11.668 -0.0804 -0.2777 -1.0521
 7122UDC     C778338   7.448  10.813  11.634  0.4645 -0.1087  0.3273
 7122UDC     C878339   7.294  10.796  11.630  0.7849 -0.2984  0.2118
 7122UDC     C978340   7.213  10.770  11.765  0.4904 -0.3116  1.0241
 7122UDC    C1078341   7.166  10.900  11.829  0.1459 -0.1418  1.0970
 7122UDC    C1178342   7.042  10.949  11.756  0.6881 -0.2615  0.2002
 7123UDC     C178343   1.166  13.532   1.030 -0.2235 -0.5710 -0.9321
 7123UDC     C278344   1.110  13.387   1.017  0.3019  0.4735 -0.1757
 7123UDC     C378345   1.207  13.296   0.954 -0.6459  1.1038 -0.3325
 7123UDC     C478346   1.314  13.267   1.056 -0.4235 -0.6093 -0.9500
 7123UDC     C578347   1.270  13.198   1.181 -0.1825 -0.2433 -0.7586
 7123UDC     C678348   1.317  13.047   1.194  0.0289 -1.2450 -0.1089
 7123UDC     C778349   1.235  12.988   1.312 -0.8370 -0.2125 -0.3419
 7123UDC     C878350   1.271  12.844   1.362 -0.1796 -0.6813 -0.5811
 7123UDC     C978351   1.212  12.825   1.507  0.2873  0.6764 -0.7532
 7123UDC    C1078352   1.255  12.683   1.561 -0.9252  0.2484  0.3002
 7123UDC    C1178353   1.220  12.571   1.454 -1.9189 -0.5842 -1.1049
 7124UDC     C178354  18.193   6.141  13.691  0.7066  0.7150 -0.1949
 7124UDC     C278355  18.211   6.267  13.782 -1.0528  0.6128  0.5926
 7124UDC     C378356  18.168   6.279  13.927  0.2088  0.4205 -1.6424
 7124UDC     C478357  18.210   6.396  14.026  0.3852  0.1665 -0.4140
 7124UDC     C578358  18.359   6.421  14.038  0.8824  0.1159 -0.3683
 7124UDC     C678359  18.413   6.550  13.981  0.2145 -0.2703  0.2550
 7124UDC     C778360  18.445   6.527  13.835 -1.2001  0.0267  0.4175
 7124UDC     C878361  18.480   6.655  13.762  0.4144  0.5821  0.6144
 7124UDC     C978362  18.357   6.703  13.680  0.0180  0.7520 -0.5884
 7124UDC    C1078363  18.377   6.851  13.656  1.0251  0.0467 -0.4102
 7124UDC    C1178364  18.433   6.887  13.517  0.1684 -0.2066  0.3322
 7125UDC     C178365   2.175  19.995  10.092 -0.7152 -0.4802 -0.8558
 7125UDC     C278366   2.212  20.078   9.971  0.7555  0.2254 -0.3554
 7125UDC     C378367   2.365  20.106   9.971 -1.1910 -0.2852  0.5559
 7125UDC     C478368   2.420  20.213  10.065  0.5226 -0.0738  0.8566
 7125UDC     C578369   2.568  20.203  10.051 -0.0057  0.5327  0.8379
 7125UDC     C678370   2.630  20.278  10.176 -0.2894  0.6870 -0.0659
 7125UDC     C778371   2.539  20.398  10.193 -0.3888 -0.4494 -0.3389
 7125UDC     C878372   2.575  20.475  10.323  0.2696 -0.6421  0.3873
 7125UDC     C978373   2.507  20.398  10.439  0.2733  0.6360 -0.0682
 7125UDC    C1078374   2.352  20.410  10.412  0.6651  0.2070 -0.3368
 7125UDC    C1178375   2.283  20.378  10.543 -0.2074 -1.0480 -0.7682
 7126UDC     C178376   7.027  12.145   2.551 -0.0078  0.5665 -0.4695
 7126UDC     C278377   7.164  12.072   2.557 -0.9260  0.5489 -0.3859
 7126UDC     C378378   7.202  12.002   2.693  0.9947 -0.2079  0.6803
 7126UDC     C478379   7.343  11.946   2.716  0.0533 -0.9134 -0.6087
 7126UDC     C578380   7.456  12.049   2.714  0.2906 -0.1070 -0.0151
 7126UDC     C678381   7.486  12.139   2.834  1.0729 -0.4110  0.2962
 7126UDC     C778382   7.596  12.079   2.918 -0.2966 -0.6834 -0.2837
 7126UDC     C878383   7.724  12.127   2.846 -1.1328 -1.4250 -0.3298
 7126UDC     C978384   7.849  12.034   2.864 -0.0929 -0.8532 -0.6321
 7126UDC    C1078385   7.848  11.890   2.811  0.0128 -0.1302  0.0003
 7126UDC    C1178386   7.852  11.869   2.658 -0.0110 -0.1677  0.3199
 7127UDC     C178387  16.036  15.376   0.035  0.3937  0.0731 -0.6062
 7127UDC     C278388  16.007  15.525   0.064  0.3304 -0.5296 -0.0200
 7127UDC     C378389  16.069  15.582   0.192  0.2597  0.5273 -0.6736
 7127UDC     C478390  15.969  15.686   0.232  0.8362  0.2880 -0.4857
 7127UDC     C578391  15.993  15.770   0.362 -1.3081  0.0311  0.0172
 7127UDC     C678392  15.871  15.839   0.423  0.7626 -0.2976 -0.2495
 7127UDC     C778393  15.846  15.992   0.406 -0.1296 -0.0876  0.0468
 7127UDC     C878394  15.743  16.047   0.505  0.0653  0.4094  0.7817
 7127UDC     C978395  15.706  16.193   0.511  0.8146  0.0600 -0.6302
 7127UDC    C1078396  15.816  16.295   0.540  0.7945  0.1086  0.1331
 7127UDC    C1178397  15.870  16.263   0.684  0.8825 -0.3285  0.0625
 7128UDC     C178398   2.446   5.776  18.565 -0.5269  0.6090 -0.9323
 7128UDC     C278399   2.310   5.735  18.511  0.5121 -0.6291  0.0672
 7128UDC     C378400   2.291   5.588  18.472 -0.2869  0.6354  0.3609
 7128UDC     C478401   2.316   5.494  18.586  1.0605 -0.8058 -0.3223
 7128UDC     C578402   2.263   5.349  18.568  0.0628 -0.6432 -1.5882
 7128UDC     C678403   2.261   5.288  18.708 -0.2427  0.0120 -0.7507
 7128UDC     C778404   2.393   5.259  18.789 -0.0957  1.1498 -0.3170
 7128UDC     C878405   2.372   5.246  18.941 -0.4630  0.1793 -0.2547
 7128UDC     C978406   2.491   5.184  19.019 -0.9056  0.0664  0.9632
 7128UDC    C1078407   2.421   5.133  19.150 -0.4762  0.3903  0.2243
 7128UDC    C1178408   2.496   5.071  19.273 -0.5403 -0.5483  0.7833
 7129UDC     C178409  16.886   1.772   9.079  1.2411 -0.2702 -0.0330
 7129UDC     C278410  16.780   1.659   9.041  0.0647 -0.4050  0.3937
 7129UDC     C378411  16.708   1.624   9.165 -0.9157 -0.5974  0.0020
 7129UDC     C478412  16.563   1.623   9.119  0.4778  0.1945 -0.0988
 7129UDC     C578413  16.453   1.554   9.216 -0.2840 -0.0726  0.3237
 7129UDC     C678414  16.314   1.496   9.180  0.2780  0.4277 -0.9076
 7129UDC     C778415  16.219   1.461   9.303 -1.0274  0.3791 -0.5580
 7129UDC     C878416  16.164   1.576   9.394 -0.4423  0.0746 -0.3101
 7129UDC     C978417  16.048   1.526   9.482  0.8535 -0.5118 -0.3664
 7129UDC    C1078418  15.967   1.636   9.546  0.8555  0.2978 -0.1018
 7129UDC    C1178419  16.059   1.707   9.644  0.2434  0.1903  0.5264
 7130UDC     C178420  17.440  12.949  18.855 -0.4867  0.3199 -0.0018
 7130UDC     C278421  17.508  13.007  18.981  0.2899 -0.2639 -0.5997
 7130UDC     C378422  17.639  12.942  19.008 -0.1304  0.3986  1.3201
 7130UDC     C478423  17.629  12.788  19.007 -0.4591 -0.5228  0.2573
 7130UDC     C578424  17.546  12.726  19.121 -0.7150  0.1108 -0.3856
 7130UDC     C678425  17.634  12.673  19.234  0.4741 -0.0308  0.2155
 7130UDC     C778426  17.594  12.742  19.365 -0.3667  0.1078 -0.1422
 7130UDC     C878427  17.480  12.842  19.353 -0.4368  0.2719 -1.2617
 7130UDC     C978428  17.390  12.852  19.480  0.0191  0.9374  0.5327
 7130UDC    C1078429  17.461  12.882  19.616 -0.0305 -0.5875  1.1459
 7130UDC    C1178430  17.399  12.987  19.706  0.5788 -0.3257  0.0689
 7131UDC     C178431   1.171  15.810   0.574 -0.2458  0.1571  0.4297
 7131UDC     C278432   1.275  15.762   0.472 -0.1206  0.8305 -0.6597
 7131UDC     C378433   1.422  15.788   0.514 -0.4249 -0.1751 -1.2946
 7131UDC     C478434   1.478  15.921   0.462  0.2075  1.4508 -0.1325
 7131UDC     C578435   1.522  16.023   0.563  0.0046 -0.0402 -0.9649
 7131UDC     C678436   1.428  16.129   0.623  0.0709 -0.5590 -0.1205
 7131UDC     C778437   1.321  16.105   0.732  0.3142 -0.2398 -0.1586
 7131UDC     C878438   1.234  16.215   0.803 -0.0292 -0.5127  0.2152
 7131UDC     C978439   1.155  16.172   0.928  0.0984  0.4248 -0.1930
 7131UDC    C1078440   1.039  16.080   0.894 -0.3899  0.9296  0.0298
 7131UDC    C1178441   0.954  16.015   1.002 -0.6603 -0.8737  0.8331
 7132UDC     C178442  16.580   8.140   0.211 -0.1818  0.9692 -0.4670
 7132UDC     C278443  16.461   8.172   0.125 -0.1853  0.7046  0.7490
 7132UDC     C378444  16.408   8.029   0.078  0.2943 -0.1164  0.5647
 7132UDC     C478445  16.326   8.040  -0.053 -0.4978  0.0212  0.8250
 7132UDC     C578446  16.267   7.911  -0.099 -0.3076  0.3538 -0.1214
 7132UDC     C678447  16.119   7.903  -0.042  0.1529  0.3342  1.6828
 7132UDC     C778448  16.040   7.767  -0.070  0.0900 -0.9315  0.7978
 7132UDC     C878449  16.020   7.752  -0.220  0.9316  0.3524  0.6756
 7132UDC     C978450  15.912   7.635  -0.246 -1.0717 -0.6329  0.2576
 7132UDC    C1078451  15.901   7.622  -0.402 -0.3192 -1.1374 -0.8671
 7132UDC    C1178452  16.026   7.575  -0.477 -0.0470  0.4864 -0.4646
 7133UDC     C178453  13.869  16.795   2.665 -0.1695  0.0322  0.6763
 7133UDC     C278454  13.752  16.889   2.619 -1.8041 -0.6006  0.4091
 7133UDC     C378455  13.795  17.019   2.546 -0.1632 -0.5722  0.2446
 7133UDC     C478456  13.791  17.128   2.651 -0.4894  0.8609 -1.7037
 7133UDC     C578457  13.647  17.151   2.695  0.9442 -0.8278 -0.6734
 7133UDC     C678458  13.594  17.233   2.822  0.4208 -1.0348 -0.0074
 7133UDC     C778459  13.448  17.272   2.827  1.0108 -0.2349  0.2152
 7133UDC     C878460  13.421  17.392   2.917  0.0344 -0.2904  0.0722
 7133UDC     C978461  13.471  17.356   3.059  1.2038 -0.0292 -0.3923
 7133UDC    C1078462  13.503  17.466   3.159  0.5323  0.4011 -0.4337
 7133UDC    C1178463  13.390  17.566   3.189  0.2412  0.5116 -1.1512
 7134UDC     C178464  19.623   0.983   8.530  0.0798 -0.4795  0.1689
 7134UDC     C278465  19.650   0.843   8.590 -0.9266 -0.0224 -0.1787
 7134UDC     C378466  19.798   0.812   8.576  0.1799  1.2506 -0.9077
 7134UDC     C478467  19.808   0.652   8.588  1.1273  0.0492 -0.7145
 7134UDC     C578468  19.927   0.564   8.547 -0.9213  1.3842  0.9124
 7134UDC     C678469  19.900   0.455   8.441  0.9907 -0.5485 -0.3783
 7134UDC     C778470  19.962   0.320   8.438 -0.3681 -1.2547 -0.7357
 7134UDC     C878471  19.908   0.269   8.567  1.1100 -0.4153  0.5266
 7134UDC     C978472  19.757   0.215   8.560 -0.0663 -0.3892  0.3722
 7134UDC    C1078473  19.732   0.147   8.696 -0.1349  0.0656  0.0491
 7134UDC    C1178474  19.612   0.059   8.700  0.1384  0.2854 -0.2125
 7135UDC     C178475  15.485   4.108   1.177 -0.5886 -0.3733 -0.1530
 7135UDC     C278476  15.483   4.215   1.291  0.6058  0.5064 -0.5492
 7135UDC     C378477  15.612   4.202   1.386 -0.3210  0.0911 -1.0550
 7135UDC     C478478  15.742   4.219   1.306 -0.1772 -0.2400  0.3745
 7135UDC     C578479  15.762   4.366   1.302 -0.8856 -1.3793  0.7771
 7135UDC     C678480  15.880   4.421   1.217 -0.6544  0.1892  0.0557
 7135UDC     C778481  15.911   4.566   1.229 -0.9079 -0.7295 -0.5072
 7135UDC     C878482  16.051   4.587   1.163  1.2242 -1.5612  0.3641
 7135UDC     C978483  16.073   4.727   1.091 -0.2933 -0.1068  0.3296
 7135UDC    C1078484  15.972   4.744   0.983  0.3535 -0.4301  0.3589
 7135UDC    C1178485  16.017   4.850   0.885 -0.1401  0.9142 -0.3672
 7136UDC     C178486   2.644  10.147  11.245 -0.1564 -0.0159  0.3397
 7136UDC     C278487   2.575  10.076  11.127  1.0708 -0.4694 -0.8559
 7136UDC     C378488   2.592   9.920  11.125  0.4368  0.0711  0.2125
 7136UDC     C478489   2.747   9.884  11.118 -0.2805  0.1056  0.2270
 7136UDC     C578490   2.769   9.734  11.082  0.3486  0.5710 -0.2109
 7136UDC     C678491   2.907   9.690  11.106 -0.7261  0.1997  1.1482
 7136UDC     C778492   2.920   9.537  11.090 -0.5706 -0.1746  0.0262
 7136UDC     C878493   2.835   9.475  10.979  1.1712 -0.2418  0.2709
 7136UDC     C978494   2.838   9.326  10.942 -0.2137 -0.3293 -0.8192
 7136UDC    C1078495   2.719   9.281  10.860 -0.5499 -1.7884 -0.7100
 7136UDC    C1178496   2.606   9.278  10.969 -0.3479 -0.6550 -0.4324
 7137UDC     C178497  11.964   9.821  15.000 -0.2797  0.6991 -0.0752
 7137UDC     C278498  11.811   9.833  15.021 -0.4436 -0.6729  0.0199
 7137UDC     C378499  11.717   9.903  14.917 -0.4763  0.2738 -0.8454
 7137UDC     C478500  11.779   9.900  14.775 -0.9508 -0.1455  1.2144
 7137UDC     C578501  11.689   9.903  14.652 -1.1572  0.0049 -0.7839
 7137UDC     C678502  11.750   9.973  14.526  0.2865  0.3044  0.2910
 7137UDC     C778503  11.666   9.964  14.400  0.9685 -1.1974 -0.4800
 7137UDC     C878504  11.620   9.830  14.358  0.1838 -0.0843 -0.1698
 7137UDC     C978505  11.640   9.798  14.209 -0.3247  0.0271 -0.7415
 7137UDC    C1078506  11.767   9.716  14.175  0.0504 -0.1765  0.1034
 7137UDC    C1178507  11.803   9.749  14.030  0.2882 -1.1061 -0.0732
 7138UDC     C178508  15.229   6.727  17.330  0.1483  0.2989  0.0700
 7138UDC     C278509  15.210   6.752  17.483 -0.3361  1.4047 -0.0218
 7138UDC     C378510  15.323   6.682  17.563 -0.6060  0.5190 -0.9823
 7138UDC     C478511  15.332   6.665  17.715  0.8629 -0.7396 -0.4098
 7138UDC     C578512  15.218   6.609  17.805  0.3786 -0.4096  1.0107
 7138UDC     C678513  15.068   6.640  17.803 -0.6217  1.0457  0.3424
 7138UDC     C778514  15.001   6.768  17.856  0.0619 -0.3620  0.4350
 7138UDC     C878515  15.005   6.784  18.008 -0.1633 -0.3675 -0.6309
 7138UDC     C978516  14.932   6.915  18.058 -0.7355  0.1693  0.5222
 7138UDC    C1078517  15.024   7.029  18.023  0.2046 -0.7999 -0.6287
 7138UDC    C1178518  14.957   7.167  18.040  1.3546  0.8319  0.4694
 7139UDC     C178519  14.359  17.620  13.161 -0.0424  1.0785 -0.6403
 7139UDC     C278520  14.239  17.706  13.200  0.2407  0.1694 -0.3297
 7139UDC     C378521  14.210  17.729  13.354  0.2112  0.6522 -0.6646
 7139UDC     C478522  14.159  17.612  13.447 -0.1368 -0.0157 -0.4278
 7139UDC     C578523  14.080  17.636  13.568 -0.2727 -0.7378 -0.0548
 7139UDC     C678524  14.011  17.512  13.633 -0.3256  0.0244 -0.8170
 7139UDC     C778525  13.884  17.544  13.724 -0.0423  0.8028 -0.4248
 7139UDC     C878526  13.745  17.574  13.665  0.7819  0.0672  1.0760
 7139UDC     C978527  13.634  17.587  13.766 -0.2197 -0.1708 -0.0714
 7139UDC    C1078528  13.622  17.742  13.805 -0.6879  0.0081 -0.2042
 7139UDC    C1178529  13.529  17.816  13.708  0.2042  0.3392 -1.1111
 7140UDC     C178530   2.196  10.880   7.650 -0.9738  0.6541  0.7030
 7140UDC     C278531   2.115  10.767   7.717 -0.4253  0.5841 -0.2098
 7140UDC     C378532   2.121  10.789   7.867 -0.3424 -0.1840  0.4960
 7140UDC     C478533   1.989  10.845   7.921 -0.7602 -0.9570 -0.3441
 7140UDC     C578534   1.959  10.819   8.076 -0.0215  0.4848 -0.3955
 7140UDC     C678535   2.070  10.807   8.193  0.4382  0.5837  1.2448
 7140UDC     C778536   2.141  10.931   8.236  0.4611  0.0743 -0.1388
 7140UDC     C878537   2.260  10.926   8.337 -0.1660  0.3455 -0.3809
 7140UDC     C978538   2.380  10.850   8.286 -0.1826  0.1050 -0.0773
 7140UDC    C1078539   2.462  10.817   8.416  0.2017 -0.9888  0.8547
 7140UDC    C1178540   2.377  10.751   8.516  0.3918  0.1450 -0.6960
 7141UDC     C178541  17.097   1.179   0.169 -0.2122 -0.9709  0.9465
 7141UDC     C278542  17.000   1.209   0.287  1.5798 -0.4427  0.1651
 7141UDC     C378543  17.057   1.135   0.407 -1.5149  0.5170  0.5753
 7141UDC     C478544  16.960   1.141   0.522  1.1672  1.0170 -0.6025
 7141UDC     C578545  17.011   1.074   0.659 -1.1795  0.0008 -0.3603
 7141UDC     C678546  17.098   0.944   0.631 -0.2999 -0.4002  0.1846
 7141UDC     C778547  17.128   0.862   0.757  1.0008  0.1171 -0.1686
 7141UDC     C878548  17.224   0.757   0.705  0.6269  0.3761  0.2253
 7141UDC     C978549  17.370   0.792   0.718 -0.2354  0.0252  0.4880
 7141UDC    C1078550  17.417   0.774   0.870  1.0232 -0.3802  0.3530
 7141UDC    C1178551  17.574   0.774   0.884  0.2315  0.1351  0.7598
 7142UDC     C178552  14.682  18.584  11.966 -0.0947  0.0367 -1.3140
 7142UDC     C278553  14.769  18.497  11.881 -0.5239  0.1235  0.8073
 7142UDC     C378554  14.786  18.353  11.934  0.7553 -0.7370  0.0398
 7142UDC     C478555  14.663  18.260  11.912 -0.1182 -0.5687  0.6409
 7142UDC     C578556  14.693  18.112  11.946  0.1982  0.8175  0.6476
 7142UDC     C678557  14.637  18.013  11.842  0.7484 -0.3106  0.4044
 7142UDC     C778558  14.746  17.974  11.747  0.2753  0.3647 -0.2680
 7142UDC     C878559  14.760  18.074  11.627  0.6426  0.0283 -0.4354
 7142UDC     C978560  14.900  18.060  11.563 -0.2377  0.5998  0.9168
 7142UDC    C1078561  15.011  18.122  11.641  0.1561  0.6075 -0.1562
 7142UDC    C1178562  15.148  18.049  11.622 -0.3824  0.4736 -1.1074
 7143UDC     C178563  11.458  16.735  15.891 -0.6779  0.9585  0.8477
 7143UDC     C278564  11.370  16.734  16.010  0.3474 -0.4167 -0.9925
 7143UDC     C378565  11.222  16.747  15.966  0.1891 -0.6301 -0.0422
 7143UDC     C478566  11.205  16.871  15.869 -0.2705  0.9777  0.0010
 7143UDC     C578567  11.066  16.899  15.799  1.1820 -0.4323 -0.2469
 7143UDC     C678568  10.964  16.913  15.911  0.1034  0.5034 -0.3830
 7143UDC     C778569  10.829  16.969  15.867  0.6317  0.9089 -0.3453
 7143UDC     C878570  10.720  16.961  15.972 -0.0259 -0.3492 -0.2140
 7143UDC     C978571  10.710  16.829  16.048 -0.4722  0.1860  0.0617
 7143UDC    C1078572  10.635  16.845  16.181  0.6824  0.7637  0.5741
 7143UDC    C1178573  10.645  16.716  16.266 -0.3537  0.8749  0.3876
 7144UDC     C178574  12.850  10.811   7.176  0.4053  0.0800 -0.2249
 7144UDC     C278575  12.761  10.701   7.231 -1.0507  0.6369  0.0438
 7144UDC     C378576  12.641  10.694   7.144 -0.4535 -0.2218  0.8008
 7144UDC     C478577  12.584  10.552   7.172 -0.1182 -0.1604 -0.4142
 7144UDC     C578578  12.448  10.511   7.120 -0.8171  0.0633 -0.3358
 7144UDC     C678579  12.326  10.555   7.197 -0.3421 -0.5820  0.9656
 7144UDC     C778580  12.189  10.528   7.120  0.2921 -0.7991  0.6611
 7144UDC     C878581  12.071  10.585   7.198 -0.8078 -0.1508  0.1089
 7144UDC     C978582  12.086  10.726   7.258  0.1990 -0.3751 -0.1202
 7144UDC    C1078583  12.001  10.765   7.376  0.4039  0.5761  0.5472
 7144UDC    C1178584  11.846  10.746   7.352  0.0708 -0.2729  0.1337
 7145UDC     C178585  10.797  16.900   4.820  0.7629 -0.1863  0.0333
 7145UDC     C278586  10.758  16.993   4.708 -1.1258 -0.0964 -0.0381
 7145UDC     C378587  10.816  17.132   4.716  0.0464 -0.8341  0.8585
 7145UDC     C478588  10.821  17.198   4.852 -1.2351 -0.4133 -1.1421
 7145UDC     C578589  10.777  17.345   4.842 -0.6399  0.7679  0.4336
 7145UDC     C678590  10.863  17.418   4.735  0.9399  1.3640  0.1513
 7145UDC     C778591  10.812  17.563   4.741 -0.6703  0.5017  0.1094
 7145UDC     C878592  10.875  17.642   4.626  1.1112  0.3238  0.0492
 7145UDC     C978593  11.015  17.706   4.649  0.3482  0.9250  0.0994
 7145UDC    C1078594  11.067  17.796   4.542  0.3316  0.3767  0.7521
 7145UDC    C1178595  10.978  17.918   4.543 -0.7970 -0.5408 -0.5982
 7146UDC     C178596  14.561  15.616   6.145 -0.3260  0.6339  1.2527
 7146UDC     C278597  14.473  15.743   6.117 -0.8504  0.0537  0.5854
 7146UDC     C378598  14.503  15.820   5.976  0.2186  0.0584  0.5824
 7146UDC     C478599  14.437  15.956   5.942  0.8281  1.1934  0.4008
 7146UDC     C578600  14.387  16.028   6.064  0.5638 -1.0030  0.1361
 7146UDC     C678601  14.239  16.000   6.092 -0.1670  1.7325  0.8698
 7146UDC     C778602  14.131  16.065   6.002 -0.6530 -0.7030 -0.4612
 7146UDC     C878603  14.102  16.203   6.055 -0.4495  0.4612 -0.7039
 7146UDC     C978604  14.114  16.302   5.929  0.4146 -0.2079 -0.9581
 7146UDC    C1078605  14.254  16.361   5.903  0.4125  0.4743  0.7650
 7146UDC    C1178606  14.254  16.443   5.779 -0.8249 -0.0585  0.4800
 7147UDC     C178607   3.845  19.800   5.767  0.0741  0.1317  0.0083
 7147UDC     C278608   3.830  19.907   5.873  0.0202 -0.4582  0.4775
 7147UDC     C378609   3.700  19.952   5.941 -0.1147 -0.2660 -0.4555
 7147UDC     C478610   3.730  20.063   6.046  1.1161 -0.3328  0.1147
 7147UDC     C578611   3.608  20.072   6.143  0.8191 -0.0283  0.3507
 7147UDC     C678612   3.495  20.047   6.041 -0.5969  0.0313  0.0576
 7147UDC     C778613   3.355  20.078   6.091 -1.0798 -0.7581 -0.3222
 7147UDC     C878614   3.302  20.000   6.211 -0.2140  0.5604 -0.1180
 7147UDC     C978615   3.149  20.000   6.225 -1.0147  0.2281 -0.8627
 7147UDC    C1078616   3.090  20.118   6.293 -0.7020  0.8918 -0.1558
 7147UDC    C1178617   2.932  20.127   6.300 -1.1274  0.2993  0.1920
 7148UDC     C178618  12.342   3.326  16.149 -0.6938 -0.7383  0.6100
 7148UDC     C278619  12.476   3.352  16.221 -1.3030 -0.9955  0.9807
 7148UDC     C378620  12.494   3.345  16.374  0.0834  0.8213 -0.8551
 7148UDC     C478621  12.649   3.355  16.399  0.7074  0.1507  0.9169
 7148UDC     C578622  12.703   3.482  16.343  0.0088  0.2467  0.5127
 7148UDC     C678623  12.660   3.607  16.409  0.5480  0.1800  0.3801
 7148UDC     C778624  12.742   3.635  16.535 -0.4130  0.3316  0.1795
 7148UDC     C878625  12.883   3.688  16.494 -0.7164  1.4342  0.4860
 7148UDC     C978626  13.005   3.610  16.544 -0.7546  1.4348 -1.0917
 7148UDC    C1078627  13.137   3.686  16.540 -0.7788  0.2349  0.0860
 7148UDC    C1178628  13.275   3.616  16.552 -0.6381 -0.2787  0.1964
 7149UDC     C178629   1.313  11.421   3.055 -0.1579 -0.7003  0.6244
 7149UDC     C278630   1.218  11.490   2.937 -0.7861 -0.3983 -0.5692
 7149UDC     C378631   1.216  11.420   2.801 -0.4143 -0.5691  0.1361
 7149UDC     C478632   1.358  11.409   2.729 -0.5357 -0.4735 -1.4787
 7149UDC     C578633   1.367  11.312   2.597  0.8448 -1.2536 -0.6147
 7149UDC     C678634   1.431  11.180   2.628  0.5244 -0.2183  0.2074
 7149UDC     C778635   1.335  11.069   2.675  0.1656  0.2376 -0.0787
 7149UDC     C878636   1.294  11.056   2.822  0.0524 -0.5273 -0.1537
 7149UDC     C978637   1.388  10.983   2.912  0.4889  0.5188 -0.7092
 7149UDC    C1078638   1.333  10.977   3.060 -0.3948  0.0349 -0.0171
 7149UDC    C1178639   1.208  10.892   3.058  0.5208 -1.1247 -0.0373
 7150UDC     C178640   5.860  13.697  10.255  0.0335  0.4126  0.0365
 7150UDC     C278641   5.788  13.825  10.322  0.2389 -0.2408  0.7675
 7150UDC     C378642   5.884  13.923  10.382 -0.0609  0.3965  0.3682
 7150UDC     C478643   5.813  14.029  10.461  0.2225 -0.0222  0.1895
 7150UDC     C578644   5.881  14.158  10.495  0.5395 -0.5323 -0.3721
 7150UDC     C678645   6.005  14.138  10.580 -0.2418  0.1788 -0.6420
 7150UDC     C778646   6.103  14.261  10.588  0.1067  0.7603  0.1680
 7150UDC     C878647   6.049  14.396  10.637 -0.5740 -0.3664 -0.5454
 7150UDC     C978648   6.168  14.468  10.706 -0.6282  0.5833 -1.0368
 7150UDC    C1078649   6.131  14.620  10.720  1.2925 -0.0883 -0.2971
 7150UDC    C1178650   6.203  14.698  10.829  0.0169  0.2674 -0.8210
 7151UDC     C178651  17.537  15.937  19.707 -0.1878 -0.6031  0.3997
 7151UDC     C278652  17.472  15.822  19.629  0.7821 -0.0786  0.0966
 7151UDC     C378653  17.361  15.888  19.539  0.1367  0.9532  0.3001
 7151UDC     C478654  17.264  15.772  19.498 -0.1840 -0.3126  0.4240
 7151UDC     C578655  17.217  15.782  19.349 -0.0064 -0.4812 -0.6991
 7151UDC     C678656  17.139  15.909  19.301 -0.3444  0.3288  0.0166
 7151UDC     C778657  16.991  15.922  19.346 -0.1974 -0.7123  1.0169
 7151UDC     C878658  16.928  16.015  19.241 -0.1025  0.2370  0.3843
 7151UDC     C978659  16.784  16.061  19.281  0.1030  0.0448 -0.8526
 7151UDC    C1078660  16.739  16.184  19.201 -0.7331  0.3654  0.3494
 7151UDC    C1178661  16.860  16.285  19.205 -0.4894 -0.8527 -0.3567
 7152UDC     C178662   0.731  12.585   3.567 -0.2970  0.6732 -0.9727
 7152UDC     C278663   0.742  12.545   3.718 -1.0073 -1.0019 -0.0670
 7152UDC     C378664   0.746  12.657   3.829  1.0215  0.3981  0.5153
 7152UDC     C478665   0.843  12.776   3.787 -0.4207  1.3175  0.3171
 7152UDC     C578666   0.991  12.766   3.827 -0.2606  1.3041  0.3284
 7152UDC     C678667   0.998  12.723   3.969  0.3928  0.8833 -0.1557
 7152UDC     C778668   1.131  12.705   4.047  0.6199 -0.5706 -0.3559
 7152UDC     C878669   1.181  12.564   4.095 -0.2510 -0.1422  0.7034
 7152UDC     C978670   1.307  12.507   4.029 -1.3619  0.5113  0.1913
 7152UDC    C1078671   1.314  12.364   4.075  0.8687  0.1526 -1.0867
 7152UDC    C1178672   1.325  12.327   4.222  0.4093 -0.1404  0.0563
 7153UDC     C178673   8.269  12.511   4.613 -1.2970  0.4390  0.7048
 7153UDC     C278674   8.345  12.547   4.743  0.5032  0.3330 -1.1411
 7153UDC     C378675   8.447  12.445   4.789  0.1493  1.0010 -0.3733
 7153UDC     C478676   8.520  12.444   4.923  0.3266  0.4286 -0.1067
 7153UDC     C578677   8.570  12.573   4.981  0.2965 -0.8790  0.8819
 7153UDC     C678678   8.614  12.576   5.121 -0.3027  0.2783 -0.5353
 7153UDC     C778679   8.495  12.554   5.218 -0.1003 -0.1392  0.0427
 7153UDC     C878680   8.540  12.632   5.343 -0.0177 -0.8244 -0.0111
 7153UDC     C978681   8.629  12.751   5.303 -0.2970 -0.2816  0.2798
 7153UDC    C1078682   8.681  12.824   5.429  0.1091 -0.1377  0.2090
 7153UDC    C1178683   8.752  12.734   5.535 -0.9311  0.5126 -0.2780
 7154UDC     C178684   2.949  14.538  18.134 -0.1436 -0.6548 -0.0264
 7154UDC     C278685   3.100  14.574  18.113  0.8072 -0.6880  0.3411
 7154UDC     C378686   3.207  14.467  18.102  0.0264 -1.1691 -0.3042
 7154UDC     C478687   3.355  14.508  18.102  0.2601  0.1296 -0.2396
 7154UDC     C578688   3.397  14.605  18.217  0.1636  0.2987  0.4721
 7154UDC     C678689   3.547  14.611  18.237  0.5026 -0.2724 -0.3256
 7154UDC     C778690   3.603  14.673  18.364 -0.2300 -0.8880  0.6405
 7154UDC     C878691   3.541  14.627  18.498  1.1295  0.0484 -0.3803
 7154UDC     C978692   3.622  14.668  18.621 -0.2551  0.0437 -0.3723
 7154UDC    C1078693   3.557  14.621  18.755  0.4120  0.9546  0.3769
 7154UDC    C1178694   3.615  14.650  18.895  0.4243 -0.7232 -0.0224
 7155UDC     C178695  16.168  15.812  17.518 -0.3628  0.1762 -0.1220
 7155UDC     C278696  16.128  15.667  17.544  0.7565  0.0377 -0.9979
 7155UDC     C378697  15.998  15.626  17.477  0.3234 -0.1964  0.1773
 7155UDC     C478698  15.887  15.630  17.580 -0.5847 -0.7172 -0.6343
 7155UDC     C578699  15.752  15.574  17.541 -0.3066  0.8747  0.7109
 7155UDC     C678700  15.623  15.620  17.613 -0.0433  1.0951 -0.0238
 7155UDC     C778701  15.488  15.583  17.542  0.3761 -0.1436 -0.9036
 7155UDC     C878702  15.416  15.463  17.609  0.8129  0.4352  0.3589
 7155UDC     C978703  15.276  15.433  17.539 -1.5640 -1.0259  1.3665
 7155UDC    C1078704  15.204  15.312  17.594  0.0126 -0.7289 -0.5597
 7155UDC    C1178705  15.052  15.316  17.567  1.1448 -1.1149 -0.1291
 7156UDC     C178706  14.379  11.890  12.646  0.1092 -0.7207 -0.1049
 7156UDC     C278707  14.433  11.948  12.512 -0.8016 -0.1482 -1.8123
 7156UDC     C378708  14.522  12.079  12.520 -0.2722  0.1445 -0.3596
 7156UDC     C478709  14.604  12.138  12.402  0.7364  0.3117 -0.6056
 7156UDC     C578710  14.620  12.011  12.298  0.4983 -0.0649  1.1360
 7156UDC     C678711  14.728  12.060  12.189  0.1987 -0.1539 -0.1684
 7156UDC     C778712  14.792  11.968  12.096 -0.3367  0.8124  0.6920
 7156UDC     C878713  14.711  11.952  11.963  1.2009  0.1186 -0.9164
 7156UDC     C978714  14.760  11.839  11.884  0.5138 -0.3737  0.8540
 7156UDC    C1078715  14.902  11.791  11.916 -0.7174 -0.3202  0.6365
 7156UDC    C1178716  15.023  11.849  11.829 -0.3539  0.0679 -0.2823
 7157UDC     C178717  18.877   1.402   9.060 -1.1133  1.8626  0.5795
 7157UDC     C278718  18.928   1.555   9.037  0.4709 -0.2206 -0.9189
 7157UDC     C378719  18.967   1.552   8.890  0.1142  0.7435 -0.6686
 7157UDC     C478720  18.846   1.500   8.813  0.9457  0.5498  0.0797
 7157UDC     C578721  18.822   1.571   8.676 -0.4283  0.6199 -1.6866
 7157UDC     C678722  18.684   1.619   8.635  1.0948  0.3202  0.1164
 7157UDC     C778723  18.708   1.653   8.485  1.0812  0.3548  0.1955
 7157UDC     C878724  18.571   1.660   8.402 -1.2917 -0.3524  0.2511
 7157UDC     C978725  18.584   1.662   8.246 -1.1340  0.5173 -0.6074
 7157UDC    C1078726  18.441   1.652   8.189  0.8400 -0.6345  0.3227
 7157UDC    C1178727  18.431   1.614   8.041  0.1277 -0.0711 -0.0269
 7158UDC     C178728  16.231  12.251  16.888 -0.0991 -0.6736  0.2201
 7158UDC     C278729  16.217  12.384  16.966  0.4648 -0.3322 -0.7196
 7158UDC     C378730  16.155  12.508  16.891  0.8715  0.9037  0.4465
 7158UDC     C478731  16.101  12.621  16.979 -0.5657 -0.0100  0.3086
 7158UDC     C578732  15.997  12.719  16.940 -0.0144 -1.8396  0.0244
 7158UDC     C678733  16.001  12.827  16.825 -0.5956 -1.4128 -0.6056
 7158UDC     C778734  16.109  12.938  16.840  0.0551 -0.3527 -0.7005
 7158UDC     C878735  16.052  13.068  16.902 -0.6746 -0.8017 -0.6811
 7158UDC     C978736  15.915  13.118  16.853 -0.3524 -0.4966 -0.3312
 7158UDC    C1078737  15.847  13.218  16.947 -0.5734  1.0917 -0.1340
 7158UDC    C1178738  15.785  13.177  17.083 -0.5306  0.0199 -0.2045
 7159UDC     C178739   3.965   9.089   4.136  0.2235 -0.0964 -0.9801
 7159UDC     C278740   3.831   9.177   4.142 -0.6464 -1.0799  0.3078
 7159UDC     C378741   3.837   9.308   4.066 -0.4037 -0.7683  0.0654
 7159UDC     C478742   3.848   9.345   3.915 -0.1355 -0.5020 -1.2316
 7159UDC     C578743   3.948   9.259   3.846 -1.2238  1.2673  0.8703
 7159UDC     C678744   3.875   9.145   3.779 -0.6606  1.0311  1.4179
 7159UDC     C778745   3.965   9.028   3.744  0.1242  0.4264  0.6127
 7159UDC     C878746   3.880   8.903   3.697  0.2981  0.3453 -0.6487
 7159UDC     C978747   3.842   8.889   3.552 -0.0677  0.0187  0.0068
 7159UDC    C1078748   3.972   8.852   3.470  1.2184  0.6745 -1.0675
 7159UDC    C1178749   3.948   8.790   3.337  1.2869  0.2243 -0.9445
 7160UDC     C178750   1.121   2.796  10.869  0.0481  0.5803 -0.0177
 7160UDC     C278751   1.179   2.904  10.966 -0.4149  1.0087 -0.0862
 7160UDC     C378752   1.325   2.923  10.966 -1.3398  0.9578 -0.1531
 7160UDC     C478753   1.385   3.059  10.935 -0.3317 -0.5812  0.2121
 7160UDC     C578754   1.518   3.061  11.019  0.0931  0.1686  0.2821
 7160UDC     C678755   1.636   2.967  10.983  0.2754 -0.3015  0.3288
 7160UDC     C778756   1.750   2.960  11.086  0.4077  0.4595  0.6858
 7160UDC     C878757   1.766   3.096  11.158 -0.4038 -0.3100  0.1054
 7160UDC     C978758   1.893   3.110  11.251 -0.1175 -0.4727 -0.7716
 7160UDC    C1078759   1.857   3.237  11.329 -0.0421 -0.1816  0.3902
 7160UDC    C1178760   1.939   3.293  11.442  0.0012  0.5647 -0.0547
 7161UDC     C178761  18.702   5.661   6.267 -0.9578  0.4761 -0.4345
 7161UDC     C278762  18.620   5.707   6.385  0.0964  0.1197  0.3858
 7161UDC     C378763  18.707   5.821   6.439 -0.3338  0.4676  0.6075
 7161UDC     C478764  18.833   5.836   6.354 -0.7475 -0.2527  0.6620
 7161UDC     C578765  18.940   5.917   6.434 -0.1610  0.5050 -1.7699
 7161UDC     C678766  19.080   5.887   6.381  0.1613 -0.4413  0.4488
 7161UDC     C778767  19.121   5.735   6.364  0.0141 -0.0346 -0.5000
 7161UDC     C878768  19.272   5.716   6.328 -0.6426 -0.4835 -1.7415
 7161UDC     C978769  19.318   5.829   6.231 -0.4218  0.2389  0.0332
 7161UDC    C1078770  19.460   5.813   6.169 -0.0220 -0.6236  0.7881
 7161UDC    C1178771  19.503   5.935   6.082 -0.9016 -0.2136  1.3441
 7162UDC     C178772  11.054   0.296   1.164 -0.2836  0.1957 -1.0600
 7162UDC     C278773  11.097   0.255   1.027 -0.1033 -0.8471 -0.2953
 7162UDC     C378774  11.003   0.151   0.962  0.5498 -0.2082 -0.4331
 7162UDC     C478775  11.012   0.011   1.024  0.4597  0.0107  0.8315
 7162UDC     C578776  10.882  -0.064   1.006 -0.2212 -0.0465  0.1751
 7162UDC     C678777  10.874  -0.203   1.062 -0.9064 -0.6026 -0.3064
 7162UDC     C778778  10.877  -0.233   1.217 -0.0298  0.2494  0.3523
 7162UDC     C878779  10.825  -0.378   1.253  0.3687  0.9722 -0.5259
 7162UDC     C978780  10.772  -0.415   1.393  0.2584 -0.3629  0.5782
 7162UDC    C1078781  10.728  -0.570   1.406 -0.2105  0.0543 -0.2957
 7162UDC    C1178782  10.839  -0.657   1.337  0.2278 -1.8125  0.1751
 7163UDC     C178783  13.904   8.661  18.326 -0.4221 -0.0680 -0.0590
 7163UDC     C278784  13.885   8.739  18.192 -0.6674 -0.7170  1.0400
 7163UDC     C378785  13.903   8.889  18.199 -0.1774 -0.6715  0.3618
 7163UDC     C478786  13.782   8.984  18.228 -0.4009 -0.5730 -1.5374
 7163UDC     C578787  13.738   8.986  18.378 -0.6685 -0.3076 -1.5973
 7163UDC     C678788  13.630   9.090  18.398  1.0740 -0.5934  0.8237
 7163UDC     C778789  13.558   9.118  18.529 -1.3922  0.9733 -0.6768
 7163UDC     C878790  13.532   9.001  18.633 -0.3643  0.2765  0.5793
 7163UDC     C978791  13.465   9.056  18.755  0.1958  0.1604 -0.0178
 7163UDC    C1078792  13.320   9.098  18.730  0.7006 -0.2838 -0.5560
 7163UDC    C1178793  13.224   9.129  18.839 -0.8282 -1.2876 -0.3424
 7164UDC     C178794  12.883  12.391   7.207 -0.0487  0.2550 -1.4803
 7164UDC     C278795  12.752  12.336   7.144 -0.4840 -0.9668  0.0664
 7164UDC     C378796  12.769  12.236   7.032  0.4296  0.7167  0.4623
 7164UDC     C478797  12.648  12.177   6.952 -0.6565  0.4960  1.1082
 7164UDC     C578798  12.560  12.094   7.037  0.4362  0.1549 -0.8005
 7164UDC     C678799  12.412  12.114   7.050  0.4131  0.3877 -0.2510
 7164UDC     C778800  12.335  12.160   6.924  0.4247  0.1909 -0.5527
 7164UDC     C878801  12.270  12.044   6.839 -0.1668  0.5205 -0.9716
 7164UDC     C978802  12.325  12.040   6.696 -0.5591 -0.5448 -0.4615
 7164UDC    C1078803  12.234  11.950   6.618  0.3673 -0.9012  0.1278
 7164UDC    C1178804  12.324  11.861   6.532  0.6836 -0.0769 -1.0120
 7165UDC     C178805  11.816   5.865  17.664 -0.8267  0.0580 -0.1118
 7165UDC     C278806  11.795   5.730  17.735  0.6192 -0.2749  0.0077
 7165UDC     C378807  11.828   5.609  17.646  0.5232  0.0602  0.0568
 7165UDC     C478808  11.844   5.466  17.707 -0.5714  0.5061  0.4110
 7165UDC     C578809  11.715   5.414  17.769  0.2301  0.4780 -0.4095
 7165UDC     C678810  11.581   5.426  17.689 -0.4377 -0.1149 -0.2208
 7165UDC     C778811  11.465   5.376  17.775  0.8880  0.1770 -0.5329
 7165UDC     C878812  11.476   5.426  17.922  0.7199  0.8805  0.2165
 7165UDC     C978813  11.470   5.580  17.956 -0.1168  0.1352 -0.2448
 7165UDC    C1078814  11.404   5.686  17.864 -0.5921 -0.2905 -1.0294
 7165UDC    C1178815  11.347   5.820  17.913 -0.8314  0.3319 -0.0396
 7166UDC     C178816   9.080   9.562   1.308  0.5170 -0.7534 -0.1496
 7166UDC     C278817   8.981   9.667   1.251  0.4646  0.1722  0.8844
 7166UDC     C378818   8.850   9.635   1.323  0.8949 -0.1465  0.6969
 7166UDC     C478819   8.726   9.705   1.251  0.3449  1.1606 -0.2696
 7166UDC     C578820   8.690   9.668   1.103  0.5784  0.8079  0.2930
 7166UDC     C678821   8.549   9.699   1.057 -0.9054 -0.6295 -0.0747
 7166UDC     C778822   8.541   9.670   0.908  0.1176  0.4497 -0.0318
 7166UDC     C878823   8.606   9.536   0.851  0.2865  0.4221 -0.4389
 7166UDC     C978824   8.742   9.552   0.791  0.0729 -0.4312  1.5809
 7166UDC    C1078825   8.752   9.407   0.734  1.2486 -1.2908  0.4286
 7166UDC    C1178826   8.662   9.389   0.606 -0.7314 -0.4202 -0.4178
 7167UDC     C178827  10.469   9.091  14.867 -0.4320 -0.2850 -0.1271
 7167UDC     C278828  10.534   9.089  14.726  0.6463 -0.5991 -0.4713
 7167UDC     C378829  10.483   9.198  14.634 -0.1391 -0.4438 -0.3370
 7167UDC     C478830  10.515   9.177  14.488 -0.5180 -0.9807  0.1868
 7167UDC     C578831  10.652   9.237  14.454 -0.0656 -0.2569 -0.6225
 7167UDC     C678832  10.698   9.262  14.302  0.5561 -1.3263 -0.2249
 7167UDC     C778833  10.847   9.256  14.264 -0.2812  0.6508  0.3420
 7167UDC     C878834  10.881   9.323  14.130 -0.1543  0.4315 -0.1242
 7167UDC     C978835  11.029   9.368  14.117 -0.1668  0.7546 -0.2460
 7167UDC    C1078836  11.128   9.262  14.055  0.5237  0.9767 -0.5489
 7167UDC    C1178837  11.092   9.248  13.906  0.8263 -0.2399 -0.0881
 7168UDC     C178838   1.221   0.508   7.169 -0.9108 -0.1162 -0.2583
 7168UDC     C278839   1.282   0.381   7.114  0.0247  0.4693  0.0551
 7168UDC     C378840   1.222   0.250   7.158  0.6861 -0.1702 -0.3649
 7168UDC     C478841   1.307   0.133   7.109 -0.2943 -0.5830 -0.3174
 7168UDC     C578842   1.267  -0.004   7.169  0.4218 -0.7303 -0.0408
 7168UDC     C678843   1.359  -0.116   7.100  0.2037  0.2293 -1.4304
 7168UDC     C778844   1.311  -0.130   6.954 -0.2364  1.0720  0.1868
 7168UDC     C878845   1.385  -0.213   6.848  0.0098 -0.4769  1.1903
 7168UDC     C978846   1.313  -0.195   6.715  0.0270  0.5301  0.0254
 7168UDC    C1078847   1.168  -0.144   6.714  0.1164  0.8354 -1.1328
 7168UDC    C1178848   1.129  -0.049   6.608  0.2502  0.0338 -0.1817
 7169UDC     C178849  11.667  17.408  13.972  0.5917 -0.2743 -0.6575
 7169UDC     C278850  11.523  17.459  13.964 -0.7328 -0.0714  0.8569
 7169UDC     C378851  11.496  17.601  14.016 -0.6872 -0.9355 -0.0333
 7169UDC     C478852  11.376  17.595  14.109 -0.5507 -1.0448  0.9589
 7169UDC     C578853  11.377  17.484  14.208  0.0149  0.4808 -0.8529
 7169UDC     C678854  11.454  17.496  14.338  0.2285 -0.6792 -0.0068
 7169UDC     C778855  11.403  17.409  14.454 -0.0959 -0.0574  0.7760
 7169UDC     C878856  11.457  17.417  14.599 -0.3197  0.4762 -1.4988
 7169UDC     C978857  11.389  17.327  14.709 -0.7561  0.1464  0.2691
 7169UDC    C1078858  11.239  17.350  14.714 -0.4912  0.2075  0.0590
 7169UDC    C1178859  11.137  17.258  14.778  0.8229  0.0546  0.9971
 7170UDC     C178860  17.974   4.128   5.765  0.7984 -0.9023 -0.2227
 7170UDC     C278861  18.028   4.091   5.623 -0.0003 -0.4430 -0.3691
 7170UDC     C378862  17.985   4.194   5.520 -0.2145  0.3798  0.0489
 7170UDC     C478863  17.836   4.178   5.474  0.6299  0.6184 -0.3698
 7170UDC     C578864  17.840   4.042   5.395 -0.5820 -0.0341 -0.3858
 7170UDC     C678865  17.724   4.051   5.297 -0.1191  0.6895  0.7854
 7170UDC     C778866  17.703   3.923   5.212 -0.2521  0.6479  0.8571
 7170UDC     C878867  17.608   3.939   5.090 -0.3219 -1.0092  0.0190
 7170UDC     C978868  17.688   4.020   4.982 -0.0268  0.1291 -0.9466
 7170UDC    C1078869  17.628   4.024   4.837 -0.1224  0.0249 -0.4390
 7170UDC    C1178870  17.734   4.089   4.749 -0.8198  0.5832  0.6308
 7171UDC     C178871   0.556   4.869   5.140 -0.4908 -0.4154  0.3046
 7171UDC     C278872   0.571   4.747   5.240 -0.2056  0.9965 -1.4887
 7171UDC     C378873   0.704   4.667   5.220 -0.8759 -0.1086  0.2568
 7171UDC     C478874   0.823   4.752   5.198 -0.4349 -0.8393  1.0404
 7171UDC     C578875   0.962   4.726   5.275  0.9371  0.0144  0.9024
 7171UDC     C678876   1.084   4.788   5.202  0.4915  0.8274  0.9157
 7171UDC     C778877   1.202   4.810   5.299  0.7055  0.0939 -0.1390
 7171UDC     C878878   1.173   4.950   5.354  0.8849 -0.3120 -1.0331
 7171UDC     C978879   1.284   5.023   5.439 -0.3001  0.6432 -0.3499
 7171UDC    C1078880   1.375   5.105   5.349  0.6850  0.4526 -0.2044
 7171UDC    C1178881   1.395   5.243   5.417 -0.5192 -0.3952 -0.0221
 7172UDC     C178882   3.708  11.936   8.965 -0.3928 -1.2090  0.2736
 7172UDC     C278883   3.614  12.038   9.035  0.4345  0.1714 -0.5438
 7172UDC     C378884   3.696  12.144   9.114 -0.5644 -0.0983 -0.0212
 7172UDC     C478885   3.617  12.268   9.155 -0.4601  0.9090  0.3639
 7172UDC     C578886   3.711  12.371   9.218 -0.2991  1.4472  0.2956
 7172UDC     C678887   3.752  12.340   9.363 -0.3323  0.1904 -0.8262
 7172UDC     C778888   3.868  12.432   9.418 -0.3499 -0.8268  0.8892
 7172UDC     C878889   4.005  12.357   9.413  0.2409 -0.8711 -0.8968
 7172UDC     C978890   4.121  12.458   9.436 -0.3233 -0.7957  0.4577
 7172UDC    C1078891   4.257  12.393   9.473  0.3445  0.5894  0.7225
 7172UDC    C1178892   4.367  12.477   9.547 -0.8876 -1.3572 -0.2048
 7173UDC     C178893   7.474  14.064   8.467  0.1178  0.9935 -0.7324
 7173UDC     C278894   7.331  14.018   8.498  0.7178  0.5782  0.0176
 7173UDC     C378895   7.235  14.082   8.397 -0.8906  0.4799  1.0105
 7173UDC     C478896   7.089  14.061   8.441 -0.5228  0.4650 -0.2518
 7173UDC     C578897   7.095  13.915   8.476  0.0400  0.1542  0.2967
 7173UDC     C678898   6.947  13.871   8.473  0.7958 -0.1600  1.4840
 7173UDC     C778899   6.897  13.727   8.529  0.3609  0.5367  1.0693
 7173UDC     C878900   6.913  13.708   8.680  1.4715 -0.0380 -0.2605
 7173UDC     C978901   6.889  13.566   8.738  0.9289 -0.9092  0.2241
 7173UDC    C1078902   6.972  13.561   8.870  0.2011 -0.7167  0.2117
 7173UDC    C1178903   7.117  13.605   8.846 -0.5678  0.4960  0.8520
 7174UDC     C178904  10.519  17.538   9.315 -0.5808  0.1757 -1.0892
 7174UDC     C278905  10.640  17.451   9.345  0.2102  1.4173 -0.5131
 7174UDC     C378906  10.780  17.495   9.312 -1.2234  0.2699 -0.5601
 7174UDC     C478907  10.799  17.650   9.327  2.3317  0.4553  0.3583
 7174UDC     C578908  10.856  17.688   9.465 -0.4581 -0.1269 -0.6044
 7174UDC     C678909  11.008  17.691   9.458  0.8602 -0.2904  0.3352
 7174UDC     C778910  11.083  17.803   9.392 -0.0599 -0.6100 -0.7441
 7174UDC     C878911  11.133  17.921   9.480 -0.0723 -0.5219 -0.7664
 7174UDC     C978912  11.290  17.903   9.491 -0.8262  0.5091 -0.2252
 7174UDC    C1078913  11.372  17.900   9.361  0.5833 -0.4299  1.0384
 7174UDC    C1178914  11.524  17.900   9.380 -0.8090 -0.1429  0.0454
 7175UDC     C178915   0.326  13.286   4.191  0.1626 -0.1699  0.1312
 7175UDC     C278916   0.297  13.375   4.312  1.0797  0.8203  0.7988
 7175UDC     C378917   0.299  13.531   4.302  0.1429  0.7096 -0.0146
 7175UDC     C478918   0.175  13.565   4.218  0.5219 -1.1763  0.6878
 7175UDC     C578919   0.135  13.715   4.207  0.1833  0.6826 -0.2839
 7175UDC     C678920   0.218  13.795   4.106 -0.0489  0.1386  0.0419
 7175UDC     C778921   0.190  13.758   3.956 -0.4190 -0.0086 -0.3495
 7175UDC     C878922   0.251  13.849   3.850  0.0345 -0.1823  0.8073
 7175UDC     C978923   0.256  13.783   3.718  1.5821 -0.4197  1.1098
 7175UDC    C1078924   0.319  13.877   3.612  0.2161 -1.2235  0.8408
 7175UDC    C1178925   0.473  13.864   3.591  0.7095 -0.5787 -0.5733
 7176UDC     C178926   3.299   6.765   9.477 -0.3794 -1.0930  0.3080
 7176UDC     C278927   3.442   6.723   9.442  0.0141  0.8154  0.5922
 7176UDC     C378928   3.522   6.669   9.559 -0.4314  0.3937  0.7370
 7176UDC     C478929   3.670   6.630   9.526  0.9483 -0.2225  0.0906
 7176UDC     C578930   3.756   6.634   9.649  0.2438 -0.3462  0.1357
 7176UDC     C678931   3.701   6.548   9.762 -0.2540 -0.0408 -0.2184
 7176UDC     C778932   3.821   6.520   9.859 -1.4436  0.6270  0.2157
 7176UDC     C878933   3.791   6.431   9.971 -0.0231  0.1300  0.4648
 7176UDC     C978934   3.918   6.374  10.044  0.2079 -0.2146  0.3073
 7176UDC    C1078935   3.931   6.230  10.000 -0.6241  1.3617 -0.4221
 7176UDC    C1178936   4.070   6.181  10.032 -0.2504  0.0256  0.6853
 7177UDC     C178937  15.851   8.860   0.157 -1.1410  0.2554  0.8285
 7177UDC     C278938  15.837   8.960   0.035 -0.6367 -0.6522  0.6632
 7177UDC     C378939  15.971   8.976  -0.048  0.7126  0.6369 -0.6640
 7177UDC     C478940  16.057   9.073   0.033  0.3086  0.1276  0.1351
 7177UDC     C578941  16.198   9.064  -0.023 -0.1474 -0.1052  0.4166
 7177UDC     C678942  16.271   9.199  -0.007  0.5532  0.2591  0.4285
 7177UDC     C778943  16.415   9.196  -0.051 -0.1688 -0.5268  0.7364
 7177UDC     C878944  16.429   9.210  -0.208 -0.6270  0.3521  0.7798
 7177UDC     C978945  16.434   9.079  -0.279 -0.3661 -0.1489 -1.5609
 7177UDC    C1078946  16.552   8.984  -0.280 -1.3033  0.0731  0.1884
 7177UDC    C1178947  16.532   8.870  -0.371 -0.9760 -0.2126  0.0824
 7178UDC     C178948   5.022   3.402  16.784  0.2065  0.1705  0.3352
 7178UDC     C278949   5.118   3.286  16.774  0.2754 -0.6844 -0.2816
 7178UDC     C378950   5.159   3.281  16.622  0.7993 -0.8726  0.9816
 7178UDC     C478951   5.252   3.167  16.596  0.1531  1.0107 -0.2911
 7178UDC     C578952   5.283   3.138  16.450  0.8811  0.0349  1.0857
 7178UDC     C678953   5.176   3.091  16.360  0.3711 -0.2114  0.6206
 7178UDC     C778954   5.089   2.971  16.399 -0.9094 -0.2294  0.9146
 7178UDC     C878955   4.977   2.931  16.305  0.5041  0.1033 -0.1476
 7178UDC     C978956   4.930   2.787  16.313  1.1180 -0.2429 -0.5379
 7178UDC    C1078957   5.037   2.679  16.292 -0.5122  0.7135 -0.3691
 7178UDC    C1178958   4.988   2.539  16.327  1.0544 -0.2062 -0.1689
 7179UDC     C178959  12.575  19.367  17.888  0.8082  0.0200  0.2265
 7179UDC     C278960  12.714  19.391  17.940  0.7217  1.1029  0.9812
 7179UDC     C378961  12.715  19.450  18.076 -0.0028  0.5244  0.5916
 7179UDC     C478962  12.787  19.364  18.185  0.4535 -0.2136  0.6695
 7179UDC     C578963  12.883  19.453  18.268 -0.0273  0.9777  1.5677
 7179UDC     C678964  12.999  19.499  18.163 -0.0930  1.7457  0.3043
 7179UDC     C778965  13.049  19.636  18.198  0.4176 -1.1611 -0.2975
 7179UDC     C878966  13.142  19.644  18.318 -0.7751 -0.6302 -0.8519
 7179UDC     C978967  13.283  19.584  18.316  0.4009 -0.0487 -1.3610
 7179UDC    C1078968  13.383  19.595  18.432  0.9601 -0.0480  0.6339
 7179UDC    C1178969  13.503  19.493  18.407  0.5694 -0.4864  0.2090
 7180UDC     C178970  14.442   5.423  17.623 -0.1761  0.9044  0.7673
 7180UDC     C278971  14.450   5.542  17.521  0.8735  0.3490  0.2371
 7180UDC     C378972  14.516   5.663  17.577  0.7154 -1.4046 -0.5952
 7180UDC     C478973  14.445   5.737  17.692 -0.5944 -0.1028 -0.1431
 7180UDC     C578974  14.438   5.890  17.699 -1.0329  0.2909 -0.9782
 7180UDC     C678975  14.350   5.947  17.595  0.4818 -0.8612  0.1648
 7180UDC     C778976  14.328   6.102  17.613 -0.3736  0.0817  0.4690
 7180UDC     C878977  14.276   6.171  17.484  0.4318  0.8903  0.6657
 7180UDC     C978978  14.237   6.312  17.518  0.7286 -0.1196  0.1059
 7180UDC    C1078979  14.156   6.318  17.650 -0.1662 -0.3683 -0.7131
 7180UDC    C1178980  14.101   6.462  17.668  0.9508  1.0331  0.5091
 7181UDC     C178981  16.582   9.773  14.744  0.4423  0.2583 -0.4208
 7181UDC     C278982  16.573   9.719  14.896  0.8322  0.3270 -0.7829
 7181UDC     C378983  16.431   9.714  14.942  0.2867 -0.2873  0.9960
 7181UDC     C478984  16.402   9.611  15.054 -0.1349  0.3464 -0.4100
 7181UDC     C578985  16.408   9.474  14.992 -0.9985  1.1956 -0.5987
 7181UDC     C678986  16.289   9.389  15.031 -0.2838  0.4335  0.8719
 7181UDC     C778987  16.292   9.345  15.179  0.6705 -0.3340 -0.5608
 7181UDC     C878988  16.152   9.293  15.200  0.4126 -0.5143 -1.1815
 7181UDC     C978989  16.050   9.409  15.223 -1.0520 -0.1600 -0.4756
 7181UDC    C1078990  15.907   9.354  15.231  0.4962 -0.1328  0.1139
 7181UDC    C1178991  15.873   9.219  15.153  0.0433 -0.3515  0.5902
 7182UDC     C178992   9.698  12.605  16.324 -0.9446  0.1830 -0.3329
 7182UDC     C278993   9.796  12.602  16.443 -0.1870  1.0270 -0.2445
 7182UDC     C378994   9.916  12.695  16.450 -0.3211  0.2014 -0.9006
 7182UDC     C478995  10.021  12.640  16.547  0.2397 -0.0897  0.5385
 7182UDC     C578996   9.989  12.649  16.697  0.8180 -1.2958 -0.0555
 7182UDC     C678997  10.087  12.627  16.813  0.2043  0.2541  0.2391
 7182UDC     C778998   9.999  12.647  16.936 -0.3927  0.7600  0.2400
 7182UDC     C878999  10.061  12.617  17.075  0.6037 -0.2758 -0.6653
 7182UDC     C979000  10.000  12.714  17.183 -0.1747  0.7349  0.7865
 7182UDC    C1079001  10.081  12.843  17.214 -0.9704 -0.9014 -0.5080
 7182UDC    C1179002  10.033  12.898  17.348 -1.3373  0.3047 -1.0800
 7183UDC     C179003  10.236   9.311  12.027 -0.5395  0.7317  0.4431
 7183UDC     C279004  10.292   9.450  12.070 -0.3108 -0.3007  1.1657
 7183UDC     C379005  10.406   9.425  12.171 -1.0209 -0.4392  1.1455
 7183UDC     C479006  10.473   9.544  12.244  0.6702  1.1874 -0.1315
 7183UDC     C579007  10.594   9.506  12.330  0.0940 -0.4946  0.1148
 7183UDC     C679008  10.625   9.359  12.361  0.6120 -0.8068 -1.1995
 7183UDC     C779009  10.569   9.320  12.496 -0.1360  0.5871  0.0237
 7183UDC     C879010  10.602   9.176  12.525 -0.4492  0.5073  0.7572
 7183UDC     C979011  10.592   9.136  12.676  0.5355 -0.3163  0.2680
 7183UDC    C1079012  10.457   9.114  12.737 -0.0993 -0.4588 -0.4087
 7183UDC    C1179013  10.441   8.967  12.788 -0.1062  0.5148 -0.3772
 7184UDC     C179014   7.546   7.814   0.570 -0.5935  0.0838 -0.5890
 7184UDC     C279015   7.644   7.854   0.456  0.7075 -0.9181 -0.9475
 7184UDC     C379016   7.699   7.995   0.463  0.3976 -0.4914  0.2486
 7184UDC     C479017   7.630   8.100   0.385 -0.4203  0.0755 -0.2013
 7184UDC     C579018   7.635   8.100   0.229  1.1046 -0.5315  0.4130
 7184UDC     C679019   7.503   8.147   0.164 -0.7063  0.8464  0.4484
 7184UDC     C779020   7.374   8.088   0.224  0.0937  0.1424 -0.0305
 7184UDC     C879021   7.259   8.087   0.124 -0.1188  0.0037 -0.5597
 7184UDC     C979022   7.296   8.008  -0.002  0.2907 -0.7035  1.5105
 7184UDC    C1079023   7.345   7.867   0.043  0.2347  0.7386 -0.0416
 7184UDC    C1179024   7.413   7.801  -0.077 -0.9195 -0.7501  0.3315
 7185UDC     C179025  18.789  17.156   8.088  1.1145 -0.1901 -0.3025
 7185UDC     C279026  18.660  17.203   8.141  1.1467 -0.8746 -0.6045
 7185UDC     C379027  18.541  17.099   8.152 -0.2205 -0.6308  0.9192
 7185UDC     C479028  18.446  17.120   8.269  0.0881  0.4216 -1.1161
 7185UDC     C579029  18.509  17.153   8.405  0.0819 -0.0737  0.2266
 7185UDC     C679030  18.428  17.254   8.499 -0.2975 -0.2286 -0.2431
 7185UDC     C779031  18.491  17.312   8.627 -0.9863 -1.3112  0.1839
 7185UDC     C879032  18.551  17.220   8.730  0.8815 -0.1479 -0.6618
 7185UDC     C979033  18.638  17.287   8.839 -0.7430 -0.0874 -0.8130
 7185UDC    C1079034  18.778  17.218   8.860 -0.9611 -0.6900 -0.2760
 7185UDC    C1179035  18.880  17.223   8.741  0.5500 -0.4575  0.6791
 7186UDC     C179036  14.561   9.168  10.151  1.1744 -0.0609  1.0297
 7186UDC     C279037  14.542   9.019  10.168 -0.0385  0.0297 -1.2528
 7186UDC     C379038  14.559   8.927  10.049 -0.8837 -0.0366 -0.9411
 7186UDC     C479039  14.488   8.795  10.066  0.2263 -0.6663  0.8321
 7186UDC     C579040  14.343   8.783  10.111 -0.9658 -1.5441 -0.4244
 7186UDC     C679041  14.245   8.891  10.055  0.3505  0.6019 -0.8589
 7186UDC     C779042  14.093   8.837  10.072 -0.0385 -1.3061  0.5105
 7186UDC     C879043  14.017   8.922   9.962 -0.2876 -0.5459 -0.2506
 7186UDC     C979044  13.874   8.962  10.012 -1.2911  0.1796 -0.1776
 7186UDC    C1079045  13.769   8.847  10.010  0.2268  0.6999 -0.0802
 7186UDC    C1179046  13.769   8.770   9.869  0.1334 -0.1092 -0.3302
 7187UDC     C179047  11.552   8.185  18.952 -1.0961 -0.1988 -0.5064
 7187UDC     C279048  11.586   8.139  19.096  0.0949 -0.4829 -0.0131
 7187UDC     C379049  11.601   7.988  19.105 -1.2934  0.0177 -1.0008
 7187UDC     C479050  11.566   7.919  18.979  0.3761  0.5181  0.7937
 7187UDC     C579051  11.586   7.768  18.958  0.4143 -0.3332 -0.3424
 7187UDC     C679052  11.475   7.728  18.864  0.3787 -0.1556  0.6324
 7187UDC     C779053  11.495   7.776  18.720 -0.6270  0.3953  0.4770
 7187UDC     C879054  11.383   7.869  18.675  0.1703 -0.0064  0.0355
 7187UDC     C979055  11.408   7.985  18.579 -0.2892 -1.6698  0.6704
 7187UDC    C1079056  11.339   8.120  18.612 -0.7483  0.3011 -0.1697
 7187UDC    C1179057  11.191   8.099  18.644  1.1457  0.6412 -0.9052
 7188UDC     C179058   3.715   7.984  17.227 -0.3041 -0.0901 -1.3812
 7188UDC     C279059   3.753   7.909  17.104 -0.4521  0.7474 -0.4131
 7188UDC     C379060   3.673   7.948  16.978 -0.1242 -0.3431  0.1617
 7188UDC     C479061   3.670   8.098  16.928 -0.7065 -0.3767 -0.3985
 7188UDC     C579062   3.579   8.119  16.800 -0.1671  1.2762 -0.3551
 7188UDC     C679063   3.611   8.016  16.691  0.8132 -0.3176 -0.6348
 7188UDC     C779064   3.519   8.035  16.563  1.5203 -1.3714  0.4790
 7188UDC     C879065   3.527   7.914  16.465 -0.3897  0.5033 -0.1661
 7188UDC     C979066   3.440   7.946  16.337 -0.0991  0.3438 -0.2738
 7188UDC    C1079067   3.305   8.008  16.369 -0.1492  0.5360 -0.3519
 7188UDC    C1179068   3.210   8.030  16.251 -0.3101 -1.0943  0.5538
 7189UDC     C179069  17.037   9.137  15.946 -0.9334  0.0790 -0.8921
 7189UDC     C279070  17.110   9.008  15.988 -0.4091 -0.3252  1.0289
 7189UDC     C379071  17.017   8.888  15.974 -0.3660 -0.6187 -0.8407
 7189UDC     C479072  16.907   8.859  16.086 -0.1837 -0.5181  0.2266
 7189UDC     C579073  16.818   8.737  16.069  0.0291  0.2420  0.3601
 7189UDC     C679074  16.729   8.699  16.189  0.8121  0.7099 -0.4664
 7189UDC     C779075  16.644   8.568  16.184  0.5962 -0.3867  0.5462
 7189UDC     C879076  16.728   8.442  16.222  1.4912  0.0875 -0.3570
 7189UDC     C979077  16.691   8.294  16.197  0.0601  0.0748 -0.6657
 7189UDC    C1079078  16.792   8.203  16.265 -0.4632 -0.6936 -0.3400
 7189UDC    C1179079  16.771   8.227  16.418  0.2077  0.5808  0.8515
 7190UDC     C179080  16.957  12.814  17.810  0.1247  0.8699 -0.7692
 7190UDC     C279081  16.824  12.755  17.848 -0.8620  0.3649  0.4893
 7190UDC     C379082  16.790  12.731  17.995 -0.7978  0.4488  0.0795
 7190UDC     C479083  16.809  12.852  18.095 -0.7435 -0.1362  0.5795
 7190UDC     C579084  16.692  12.888  18.175 -0.2773  0.2564  0.3710
 7190UDC     C679085  16.695  13.039  18.203 -0.7145  0.8770 -0.6615
 7190UDC     C779086  16.779  13.072  18.329  0.0048 -0.2213  0.3793
 7190UDC     C879087  16.878  13.193  18.346 -0.1343 -0.3945 -1.5023
 7190UDC     C979088  16.962  13.170  18.468  0.0008  0.1381 -0.0032
 7190UDC    C1079089  16.965  13.302  18.545  0.6313 -1.1294  0.2073
 7190UDC    C1179090  17.009  13.421  18.463  0.8946 -0.4988  0.0930
 7191UDC     C179091   7.520  10.581   2.304  0.3925  0.8074  0.1807
 7191UDC     C279092   7.384  10.523   2.355  1.4254  0.2352  1.3692
 7191UDC     C379093   7.323  10.430   2.244 -0.1313 -0.8122 -0.7652
 7191UDC     C479094   7.173  10.403   2.274  0.3610 -0.3718 -0.1666
 7191UDC     C579095   7.151  10.376   2.420 -0.1071  0.1212 -0.7547
 7191UDC     C679096   7.226  10.250   2.465 -0.3553  0.6083 -0.0631
 7191UDC     C779097   7.223  10.260   2.612  0.2373 -0.0228 -0.5037
 7191UDC     C879098   7.289  10.133   2.679 -0.2694  0.6322  0.6709
 7191UDC     C979099   7.260  10.110   2.828  0.5025 -0.1574  0.3313
 7191UDC    C1079100   7.342  10.004   2.898  0.6998 -0.6923  0.0928
 7191UDC    C1179101   7.487  10.037   2.895  0.5109  0.8607 -0.0288
 7192UDC     C179102  12.874  15.678  16.304 -1.0377 -0.0191 -0.0711
 7192UDC     C279103  12.832  15.638  16.442 -0.0822  0.8567 -0.5446
 7192UDC     C379104  12.918  15.715  16.538  0.0729  0.5689  0.0089
 7192UDC     C479105  12.841  15.723  16.668 -0.8555  0.8495 -0.9407
 7192UDC     C579106  12.706  15.794  16.651  0.1720  0.0080  0.6541
 7192UDC     C679107  12.649  15.847  16.782  0.8638  0.6450 -1.1283
 7192UDC     C779108  12.516  15.921  16.761 -0.4225  0.0647 -0.6903
 7192UDC     C879109  12.538  16.054  16.689  0.7309  0.5389  1.5904
 7192UDC     C979110  12.650  16.138  16.757 -0.0886  0.1149  0.5907
 7192UDC    C1079111  12.647  16.272  16.684 -0.7248 -0.6428  0.4018
 7192UDC    C1179112  12.507  16.331  16.676  0.2877 -0.1927 -0.0321
 7193UDC     C179113   7.406  11.260   4.711  0.0886 -0.4067 -1.2071
 7193UDC     C279114   7.471  11.136   4.645 -0.4752  0.1013  0.1177
 7193UDC     C379115   7.620  11.126   4.654  0.2813  0.4192 -1.1486
 7193UDC     C479116   7.680  11.259   4.603 -0.5609 -0.3298 -0.1723
 7193UDC     C579117   7.834  11.262   4.650  0.4262  0.2228  0.8794
 7193UDC     C679118   7.937  11.181   4.558  1.0634 -1.4928  0.0797
 7193UDC     C779119   7.935  11.034   4.537 -0.0565 -0.1528 -0.7575
 7193UDC     C879120   8.007  10.993   4.406  0.1671  0.3403 -0.0942
 7193UDC     C979121   7.947  11.026   4.277  0.3400 -0.4510 -0.5050
 7193UDC    C1079122   7.802  10.990   4.266 -0.0959 -0.0636  0.5028
 7193UDC    C1179123   7.779  11.005   4.111  1.4681  0.2280  0.1064
 7194UDC     C179124  16.415  14.126  17.064  0.1937  0.4784 -0.0250
 7194UDC     C279125  16.401  14.257  16.983  2.1702  1.4249 -0.8686
 7194UDC     C379126  16.283  14.353  17.027 -0.4979  1.0844  0.8281
 7194UDC     C479127  16.284  14.500  16.965 -1.1236 -0.1709  0.0962
 7194UDC     C579128  16.186  14.587  17.028  2.5291  0.5466  0.5494
 7194UDC     C679129  16.054  14.538  16.981 -0.3837 -0.2102  0.5269
 7194UDC     C779130  15.940  14.598  17.064 -0.7853 -1.3102 -0.3383
 7194UDC     C879131  15.821  14.514  17.087  0.4112  0.8326 -0.9655
 7194UDC     C979132  15.766  14.506  17.234  1.1085  0.2537  0.3218
 7194UDC    C1079133  15.659  14.407  17.266  0.7351  0.5558 -1.2724
 7194UDC    C1179134  15.620  14.403  17.412 -0.3206 -0.5760 -1.6541
 7195UDC     C179135   9.288  11.752   2.286  0.8442  0.4240  0.1403
 7195UDC     C279136   9.211  11.853   2.204 -0.7891  0.0063  0.7478
 7195UDC     C379137   9.091  11.805   2.114  0.2242  0.1880  0.9463
 7195UDC     C479138   8.998  11.706   2.172 -0.5232 -0.0874 -0.4748
 7195UDC     C579139   8.848  11.736   2.148 -0.0414 -0.5243  0.7555
 7195UDC     C679140   8.746  11.635   2.177  0.2534  0.5364 -0.4671
 7195UDC     C779141   8.605  11.629   2.121  0.1872  0.0159 -1.1305
 7195UDC     C879142   8.580  11.679   1.976  0.8663  1.0910  0.5905
 7195UDC     C979143   8.672  11.625   1.862  0.7609 -0.2320 -0.1629
 7195UDC    C1079144   8.633  11.677   1.717 -0.3206 -0.1906  0.6141
 7195UDC    C1179145   8.484  11.656   1.698  0.2855  0.2677  1.0473
 7196UDC     C179146   8.874  12.606  12.989 -1.3137 -0.7741 -1.0500
 7196UDC     C279147   8.807  12.590  13.118  1.1369 -0.1661 -1.0535
 7196UDC     C379148   8.683  12.491  13.105 -1.0664  0.6181 -0.3053
 7196UDC     C479149   8.617  12.454  13.240  0.0195 -1.2494 -0.5882
 7196UDC     C579150   8.591  12.567  13.337 -0.1830 -1.6706 -1.5897
 7196UDC     C679151   8.602  12.533  13.490  0.4167  0.3439  0.0986
 7196UDC     C779152   8.659  12.649  13.581 -0.6567  0.6769  0.8993
 7196UDC     C879153   8.772  12.722  13.500 -0.0433  0.0484  0.4599
 7196UDC     C979154   8.755  12.838  13.400 -0.7348 -0.2922 -1.0427
 7196UDC    C1079155   8.890  12.870  13.334  0.7327  0.0019  0.4687
 7196UDC    C1179156   9.002  12.786  13.387 -0.1489  0.1059 -0.1394
 7197UDC     C179157  15.951   0.940   2.720 -0.2193 -0.2366 -0.0130
 7197UDC     C279158  16.013   0.827   2.641  0.4532 -0.2885  0.1919
 7197UDC     C379159  16.117   0.893   2.546  1.2176  0.6987  0.7108
 7197UDC     C479160  16.156   0.788   2.442  1.5801 -0.6284 -0.1927
 7197UDC     C579161  16.038   0.764   2.344 -0.9768  0.1241 -0.9825
 7197UDC     C679162  15.985   0.899   2.302 -0.7509  0.1078  0.4065
 7197UDC     C779163  15.885   0.896   2.179 -0.3696  1.0169 -0.8377
 7197UDC     C879164  15.775   0.789   2.195 -0.6362  0.8362 -0.6864
 7197UDC     C979165  15.667   0.774   2.083  0.4697 -0.5608 -0.6931
 7197UDC    C1079166  15.537   0.695   2.112  0.0467  0.7987 -0.1311
 7197UDC    C1179167  15.460   0.655   1.994  0.0161 -0.2759 -0.1133
 7198UDC     C179168   6.929   5.096   1.036 -0.0441  0.3727 -0.6268
 7198UDC     C279169   6.942   5.146   1.178 -0.1064 -0.5194  0.4254
 7198UDC     C379170   7.092   5.121   1.230  0.7125  0.1866 -0.2657
 7198UDC     C479171   7.195   5.204   1.154 -0.1074  0.0819 -0.9545
 7198UDC     C579172   7.333   5.150   1.186  0.0505 -1.8063  1.1294
 7198UDC     C679173   7.399   5.046   1.093 -0.2389 -0.7208 -0.3394
 7198UDC     C779174   7.548   5.022   1.127  0.9575  0.6201 -1.1168
 7198UDC     C879175   7.570   4.874   1.090 -0.0345  0.8749 -0.7347
 7198UDC     C979176   7.610   4.874   0.941  0.6650  0.0880 -0.1277
 7198UDC    C1079177   7.727   4.973   0.922 -0.8285 -0.1546 -0.6431
 7198UDC    C1179178   7.814   4.973   0.786  0.1910  0.2185 -0.3017
 7199UDC     C179179  10.610  12.753  15.150 -0.1801  0.1766  0.2987
 7199UDC     C279180  10.690  12.669  15.056 -0.3448 -0.3054  0.1796
 7199UDC     C379181  10.701  12.529  15.133  1.2425 -0.5372 -0.4525
 7199UDC     C479182  10.548  12.486  15.136 -0.7915 -0.4444  0.4832
 7199UDC     C579183  10.522  12.343  15.080  0.4508 -0.7739  1.3376
 7199UDC     C679184  10.383  12.339  15.012  0.5978 -1.1066 -0.4106
 7199UDC     C779185  10.253  12.391  15.075  0.4199 -0.7677 -0.0012
 7199UDC     C879186  10.135  12.424  14.976 -0.4561  0.0620  0.4699
 7199UDC     C979187  10.011  12.481  15.038 -0.3519  0.4836  0.0033
 7199UDC    C1079188   9.872  12.444  14.988  0.0425 -0.7687 -0.1459
 7199UDC    C1179189   9.824  12.299  14.983  0.1052  0.5198 -0.3152
 7200UDC     C179190   5.722  18.863   6.207  0.4652  0.6163  0.3748
 7200UDC     C279191   5.780  18.921   6.071  0.1179  0.6835 -0.3067
 7200UDC     C379192   5.814  18.800   5.977  0.6519 -0.7677 -0.7423
 7200UDC     C479193   5.817  18.825   5.822 -0.3037  0.6481 -1.2991
 7200UDC     C579194   5.849  18.718   5.715  0.0703 -0.3745  0.6537
 7200UDC     C679195   5.792  18.759   5.582  0.2664  0.0174 -0.1183
 7200UDC     C779196   5.750  18.908   5.603 -0.9022  0.3349 -0.9286
 7200UDC     C879197   5.681  18.975   5.480 -0.0538  0.8569  0.3108
 7200UDC     C979198   5.602  19.101   5.539 -0.6660 -0.6104  0.8041
 7200UDC    C1079199   5.467  19.153   5.473  0.4074  0.0951  0.3846
 7200UDC    C1179200   5.406  19.255   5.569  0.6557 -1.3798 -0.3290
 7201UDC     C179201   1.738   3.168  18.316  0.3126 -0.1738 -0.2795
 7201UDC     C279202   1.625   3.256  18.258 -0.6756 -0.5899  0.1049
 7201UDC     C379203   1.487   3.185  18.242  0.3154  0.5040  0.4884
 7201UDC     C479204   1.391   3.181  18.364  0.5496  0.4194  1.4538
 7201UDC     C579205   1.279   3.079  18.337  0.6661 -0.1718  0.1078
 7201UDC     C679206   1.314   2.937  18.381 -0.5789  0.9544  0.1779
 7201UDC     C779207   1.378   2.916  18.524  1.1506  0.0366 -0.6995
 7201UDC     C879208   1.349   2.765  18.575  0.5104  0.7538 -0.0307
 7201UDC     C979209   1.407   2.730  18.714  0.1431 -0.1399  0.1373
 7201UDC    C1079210   1.413   2.590  18.762  0.3604  0.4662 -0.0921
 7201UDC    C1179211   1.549   2.531  18.726 -0.7780 -0.0843  0.2337
 7202UDC     C179212  16.396   5.636  15.168  0.1043  0.5859  0.1574
 7202UDC     C279213  16.463   5.554  15.283 -0.4453  0.7854 -0.4618
 7202UDC     C379214  16.434   5.587  15.432 -0.5239  0.2910  0.2399
 7202UDC     C479215  16.283   5.606  15.473 -0.2352  0.8243 -0.6195
 7202UDC     C579216  16.244   5.750  15.451  0.6890 -0.7380  0.2325
 7202UDC     C679217  16.093   5.790  15.452  0.8324  0.0544 -0.9544
 7202UDC     C779218  15.997   5.686  15.385  0.0546  0.6170 -0.2459
 7202UDC     C879219  15.855   5.700  15.427  0.1835  0.5899 -0.1279
 7202UDC     C979220  15.751   5.603  15.368  0.1493 -0.7425 -0.6826
 7202UDC    C1079221  15.613   5.650  15.408 -0.5059 -0.0845  0.7956
 7202UDC    C1179222  15.587   5.667  15.558  0.0729  1.0471 -0.2854
 7203UDC     C179223   4.857   1.304   0.242 -0.0593 -0.7637 -0.1389
 7203UDC     C279224   4.724   1.381   0.274 -0.4414 -0.9549  0.3854
 7203UDC     C379225   4.748   1.518   0.213 -0.5364 -0.2790  1.0208
 7203UDC     C479226   4.629   1.614   0.215 -0.9041  0.6179 -0.0066
 7203UDC     C579227   4.576   1.630   0.357 -0.0353 -0.1292  0.2340
 7203UDC     C679228   4.680   1.726   0.422  0.2551 -0.8546 -0.5797
 7203UDC     C779229   4.685   1.872   0.366  0.2300 -0.4425 -0.7124
 7203UDC     C879230   4.565   1.953   0.421  0.5184 -0.2532 -0.0909
 7203UDC     C979231   4.515   2.092   0.378 -0.5990 -0.1968 -0.2616
 7203UDC    C1079232   4.616   2.194   0.448  0.6294 -0.3445  0.0625
 7203UDC    C1179233   4.544   2.263   0.565 -0.9581  1.1879 -0.6793
 7204UDC     C179234   5.718  16.013   1.299  0.2003  1.1045  0.8629
 7204UDC     C279235   5.686  15.882   1.228  0.0631  0.8185 -0.4981
 7204UDC     C379236   5.540  15.833   1.228 -0.5873 -0.2090 -0.3888
 7204UDC     C479237   5.519  15.705   1.146 -0.3021 -1.0838  0.2560
 7204UDC     C579238   5.533  15.580   1.232  0.4510  0.6839 -0.6309
 7204UDC     C679239   5.576  15.463   1.146  0.8896 -0.4541 -0.2490
 7204UDC     C779240   5.690  15.483   1.049 -1.2827 -0.8947  0.8192
 7204UDC     C879241   5.823  15.525   1.110  0.9641  0.1677  0.1860
 7204UDC     C979242   5.920  15.566   0.993 -0.7802 -0.8594  0.1066
 7204UDC    C1079243   6.069  15.577   1.036  0.8580  0.5432  0.3389
 7204UDC    C1179244   6.077  15.679   1.147 -0.3579  0.0055 -1.0728
 7205UDC     C179245   5.303  11.832  17.125  0.3295  0.6316 -0.1834
 7205UDC     C279246   5.422  11.782  17.208 -0.2816 -0.1544  0.8218
 7205UDC     C379247   5.418  11.826  17.358 -0.5030  0.0082 -0.6252
 7205UDC     C479248   5.400  11.696  17.439 -0.0692  0.4153  0.7942
 7205UDC     C579249   5.513  11.588  17.420  0.5894 -0.2276 -0.3991
 7205UDC     C679250   5.653  11.627  17.465 -0.6247  0.5762 -0.6891
 7205UDC     C779251   5.752  11.526  17.407 -0.1528 -0.1946 -0.4734
 7205UDC     C879252   5.719  11.383  17.466 -0.1659  1.1885  0.3522
 7205UDC     C979253   5.824  11.287  17.399  0.1484  0.5075  0.1710
 7205UDC    C1079254   5.803  11.136  17.418 -0.0440  0.6026 -0.8557
 7205UDC    C1179255   5.925  11.057  17.376  0.4423 -0.1645 -0.1641
 7206UDC     C179256   7.342   0.466  11.679 -0.0835 -0.2301  0.4588
 7206UDC     C279257   7.449   0.400  11.592  0.2255  0.2510  0.9036
 7206UDC     C379258   7.414   0.392  11.437 -0.2295 -0.0886 -1.0121
 7206UDC     C479259   7.362   0.520  11.372  0.5493 -0.9575 -0.3312
 7206UDC     C579260   7.354   0.528  11.225  0.5375  0.6631 -0.0777
 7206UDC     C679261   7.468   0.440  11.166  0.1961  0.2804 -0.9044
 7206UDC     C779262   7.464   0.447  11.012  0.1006  0.7880  1.5853
 7206UDC     C879263   7.545   0.371  10.894 -0.0820 -0.3369 -0.8097
 7206UDC     C979264   7.490   0.235  10.858 -0.1791 -0.5226  0.2485
 7206UDC    C1079265   7.540   0.165  10.735 -1.0348  0.4082 -0.6475
 7206UDC    C1179266   7.666   0.092  10.777 -0.4518 -0.0514 -0.3441
 7207UDC     C179267  14.222  18.708  13.361 -0.0565 -0.9729  0.1800
 7207UDC     C279268  14.292  18.843  13.325  0.5498 -1.1857  0.2745
 7207UDC     C379269  14.218  18.961  13.389 -0.5136  1.0609  0.1663
 7207UDC     C479270  14.069  18.971  13.359  0.6478 -0.3831  0.4763
 7207UDC     C579271  13.979  19.055  13.446  0.2045  0.4606 -0.1272
 7207UDC     C679272  13.922  19.187  13.392 -0.2386  0.1773 -0.0948
 7207UDC     C779273  14.036  19.296  13.372 -0.1404  0.3831  0.6574
 7207UDC     C879274  13.961  19.418  13.328  0.7913 -1.3753 -0.0434
 7207UDC     C979275  13.897  19.406  13.186  0.4314  0.1518  0.1432
 7207UDC    C1079276  13.845  19.535  13.120 -0.1264  0.0432 -0.9026
 7207UDC    C1179277  13.969  19.591  13.050  0.7067 -1.6708 -0.2912
 7208UDC     C179278   0.188   6.093   6.037  0.0378  0.1184  0.4903
 7208UDC     C279279   0.273   6.026   5.927  0.0810 -0.6073  0.4261
 7208UDC     C379280   0.372   6.112   5.837  0.4631 -0.0095  0.0770
 7208UDC     C479281   0.506   6.125   5.901 -0.6354 -0.6038  0.1944
 7208UDC     C579282   0.611   6.194   5.810 -0.5307 -0.2952 -0.0244
 7208UDC     C679283   0.569   6.336   5.769 -0.0088  0.0338 -0.1316
 7208UDC     C779284   0.581   6.423   5.903  1.6707  0.7365  0.1520
 7208UDC     C879285   0.473   6.532   5.885 -0.9311  0.0368 -0.4688
 7208UDC     C979286   0.484   6.642   5.784  0.3429  0.1982  0.0713
 7208UDC    C1079287   0.587   6.751   5.831  0.2217  0.0618 -0.0540
 7208UDC    C1179288   0.582   6.881   5.757 -0.2179  0.3128  0.7031
 7209UDC     C179289   3.310  17.645  11.876 -0.1375  0.0264  1.3089
 7209UDC     C279290   3.468  17.641  11.876  0.1235 -0.8478 -0.8173
 7209UDC     C379291   3.544  17.670  12.005 -0.2200  0.5327  0.2177
 7209UDC     C479292   3.698  17.641  11.990 -0.8104 -1.5838 -0.3752
 7209UDC     C579293   3.756  17.506  11.948  0.7547  0.1954 -0.2132
 7209UDC     C679294   3.794  17.447  12.080  0.7148  0.5390 -0.0290
 7209UDC     C779295   3.835  17.301  12.077 -1.4759 -0.7548 -0.1746
 7209UDC     C879296   3.882  17.250  12.215 -0.1378 -0.0551 -0.3703
 7209UDC     C979297   4.040  17.290  12.236  0.6197 -0.2127  0.5809
 7209UDC    C1079298   4.128  17.184  12.167 -0.1791  0.1232  0.8973
 7209UDC    C1179299   4.255  17.229  12.106 -0.9857  0.2935  0.4343
 7210UDC     C179300  15.921   8.394   8.587 -0.5136 -0.5786 -0.4613
 7210UDC     C279301  15.943   8.530   8.518 -0.1866 -0.3811 -0.3071
 7210UDC     C379302  15.864   8.565   8.397  1.6020 -0.0282 -0.3486
 7210UDC     C479303  15.947   8.655   8.305  0.2906 -0.7901  0.7147
 7210UDC     C579304  15.852   8.731   8.210 -0.0541 -0.5300  0.2231
 7210UDC     C679305  15.739   8.642   8.163  0.3565  1.1644 -0.5435
 7210UDC     C779306  15.617   8.690   8.082 -0.1424 -0.1724 -0.4515
 7210UDC     C879307  15.559   8.626   7.957 -0.1438  0.2312  0.5570
 7210UDC     C979308  15.423   8.679   7.905 -0.3889  0.1221  0.3875
 7210UDC    C1079309  15.361   8.614   7.778 -0.1510  0.2619  0.2864
 7210UDC    C1179310  15.463   8.636   7.665  0.5143 -1.3920 -0.7019
 7211UDC     C179311   9.955   0.351  17.965  0.1940 -0.0522  1.4171
 7211UDC     C279312   9.979   0.221  18.058 -0.1688 -0.8653  0.7049
 7211UDC     C379313   9.862   0.121  18.055  0.2863  0.3672 -0.3374
 7211UDC     C479314   9.903  -0.002  18.128  0.9046  0.1026  0.2936
 7211UDC     C579315   9.791  -0.109  18.123 -0.2629  0.1661  0.1782
 7211UDC     C679316   9.719  -0.111  18.253 -0.2393 -0.4246  0.0087
 7211UDC     C779317   9.589  -0.188  18.233  1.0413  0.1319 -0.4522
 7211UDC     C879318   9.534  -0.225  18.376  0.2746  0.6678 -0.2591
 7211UDC     C979319   9.387  -0.279  18.398 -0.1546  0.5138  0.4805
 7211UDC    C1079320   9.347  -0.326  18.537 -0.2364  0.7376 -1.4295
 7211UDC    C1179321   9.363  -0.237  18.657  0.7441  0.0778 -0.7454
 7212UDC     C179322  11.450  18.652   5.099 -0.7499 -0.6482 -0.4102
 7212UDC     C279323  11.332  18.631   4.997  0.1407  0.6791  0.6170
 7212UDC     C379324  11.352  18.618   4.841 -0.3367 -0.0270 -0.0489
 7212UDC     C479325  11.217  18.588   4.772 -0.6101 -0.8468  0.4576
 7212UDC     C579326  11.123  18.701   4.821 -0.2247  0.5409 -0.0614
 7212UDC     C679327  11.015  18.763   4.727 -0.8573  1.4558 -0.2929
 7212UDC     C779328  10.961  18.891   4.778  0.8160 -0.6410 -0.4168
 7212UDC     C879329  10.846  18.963   4.707 -0.0551  0.7572  0.6181
 7212UDC     C979330  10.714  18.895   4.718  0.7141 -0.2711 -0.6957
 7212UDC    C1079331  10.675  18.852   4.858  0.0747 -1.4895  0.2779
 7212UDC    C1179332  10.561  18.743   4.860 -0.3007 -0.1878  0.0493
 7213UDC     C179333  18.430   9.823   0.061  0.5111  0.9276  1.4175
 7213UDC     C279334  18.391   9.718  -0.043 -1.0737  0.9354 -0.0265
 7213UDC     C379335  18.483   9.597  -0.059  0.5677 -0.0723 -0.0502
 7213UDC     C479336  18.468   9.506   0.068 -0.5788  0.3048 -0.3088
 7213UDC     C579337  18.574   9.393   0.099 -0.4087  0.2942  0.9284
 7213UDC     C679338  18.605   9.290  -0.013  0.9606  0.2370  0.8137
 7213UDC     C779339  18.749   9.297  -0.052 -2.1688 -0.5447 -0.3049
 7213UDC     C879340  18.790   9.223  -0.181  0.8007  1.0600 -0.0786
 7213UDC     C979341  18.936   9.196  -0.182  1.4748 -0.2082 -0.0849
 7213UDC    C1079342  18.988   9.106  -0.289  0.5674  1.4425  0.9785
 7213UDC    C1179343  18.868   9.034  -0.350  0.0370  0.6225 -0.0479
 7214UDC     C179344   7.857   0.433   1.927 -0.8415 -1.4023  0.7985
 7214UDC     C279345   7.991   0.383   1.971  0.1189  0.9473 -0.0399
 7214UDC     C379346   7.995   0.258   2.049 -0.1595 -0.5555  0.2404
 7214UDC     C479347   8.137   0.194   2.094 -0.2035  0.9380 -0.3051
 7214UDC     C579348   8.235   0.167   1.978  0.1956  0.2068 -0.1395
 7214UDC     C679349   8.197   0.040   1.900  0.0446 -0.2308 -0.2447
 7214UDC     C779350   8.194  -0.094   1.978 -0.5878  0.6921  0.3080
 7214UDC     C879351   8.320  -0.180   1.970 -0.0676  0.5893 -0.3742
 7214UDC     C979352   8.288  -0.295   2.068  1.4242 -0.2079  0.5389
 7214UDC    C1079353   8.408  -0.355   2.144 -0.7736  0.9943  0.4538
 7214UDC    C1179354   8.381  -0.435   2.276 -0.3344  0.3554  0.5649
 7215UDC     C179355   8.206  19.604  13.193  0.1691  0.0962 -0.2848
 7215UDC     C279356   8.303  19.507  13.264  0.0729  0.1450 -0.8402
 7215UDC     C379357   8.252  19.361  13.267 -0.0870  0.2179 -0.2252
 7215UDC     C479358   8.153  19.321  13.376  0.5816  0.1911  1.2148
 7215UDC     C579359   8.109  19.175  13.374  0.0997 -0.7946 -0.0148
 7215UDC     C679360   8.039  19.132  13.245  0.6285  1.4934  0.7570
 7215UDC     C779361   7.918  19.038  13.281  0.3060 -1.4246  0.2650
 7215UDC     C879362   7.791  19.119  13.326 -0.6605  1.5111  1.0055
 7215UDC     C979363   7.679  19.060  13.420  0.5432 -1.0520 -0.4242
 7215UDC    C1079364   7.544  19.131  13.443 -0.9461 -0.5265 -0.0300
 7215UDC    C1179365   7.568  19.275  13.502 -1.4488  0.5555 -0.2914
 7216UDC     C179366   4.989   8.143  16.390 -0.1816  1.0957  0.1916
 7216UDC     C279367   5.082   8.241  16.313  0.0867 -0.3151  0.3124
 7216UDC     C379368   5.066   8.377  16.380 -0.3758 -0.1269  0.3445
 7216UDC     C479369   4.971   8.451  16.282 -0.1434  0.2385  0.3390
 7216UDC     C579370   5.046   8.516  16.171  1.1301 -0.2452  0.5447
 7216UDC     C679371   4.965   8.603  16.075  1.2752  0.1613  0.1282
 7216UDC     C779372   4.886   8.715  16.159  0.7186  0.2217  0.2903
 7216UDC     C879373   4.749   8.728  16.091 -0.2954  1.6713 -0.7407
 7216UDC     C979374   4.663   8.600  16.081 -0.0353  0.4515 -1.6026
 7216UDC    C1079375   4.508   8.625  16.088  0.3364 -0.3065 -1.4663
 7216UDC    C1179376   4.426   8.500  16.065 -0.5003  0.4841  0.0264
 7217UDC     C179377   5.203  19.043   6.449 -0.0914  0.1580 -0.0411
 7217UDC     C279378   5.232  19.128   6.571  0.0297  0.1515 -0.3851
 7217UDC     C379379   5.324  19.066   6.678 -0.3737  0.9348 -0.3804
 7217UDC     C479380   5.275  18.965   6.788 -0.7800  0.5549 -0.0076
 7217UDC     C579381   5.381  18.893   6.875 -0.4440  0.2065  1.6474
 7217UDC     C679382   5.460  18.990   6.958  1.3526 -0.1147  0.9689
 7217UDC     C779383   5.545  18.900   7.047 -0.0097 -1.3275 -1.1975
 7217UDC     C879384   5.615  18.781   6.974 -0.7039  0.3321  0.0084
 7217UDC     C979385   5.707  18.698   7.073  0.4533 -0.0701  0.0101
 7217UDC    C1079386   5.746  18.568   6.989 -0.5400  0.6456 -0.8558
 7217UDC    C1179387   5.831  18.596   6.863 -0.2716 -0.8501  0.7813
 7218UDC     C179388   6.736   9.012   1.214 -0.5543 -1.2100 -0.4292
 7218UDC     C279389   6.865   9.041   1.122  0.4317  0.4145 -0.3965
 7218UDC     C379390   6.822   9.048   0.977 -0.2379 -0.9950 -0.0952
 7218UDC     C479391   6.716   8.942   0.970  0.5144 -0.8609  0.0422
 7218UDC     C579392   6.680   8.907   0.829 -0.0516 -0.1634  0.1973
 7218UDC     C679393   6.628   8.759   0.836  1.4780  0.4937  1.4230
 7218UDC     C779394   6.729   8.643   0.834 -0.7536 -0.0011 -0.5664
 7218UDC     C879395   6.810   8.630   0.707 -0.2572  0.0720  0.3798
 7218UDC     C979396   6.900   8.504   0.702  0.1636 -0.9244 -0.8396
 7218UDC    C1079397   7.028   8.521   0.623  0.9034  0.6271 -0.5606
 7218UDC    C1179398   7.126   8.415   0.662  0.3498 -0.5187  0.0625
 7219UDC     C179399  17.492   1.530  14.677  0.2237 -0.0547  0.1648
 7219UDC     C279400  17.649   1.537  14.658  0.5084 -0.3488 -0.9660
 7219UDC     C379401  17.717   1.480  14.787  0.9174 -0.2759  0.7966
 7219UDC     C479402  17.675   1.570  14.910  0.8831 -0.1077  0.7072
 7219UDC     C579403  17.708   1.719  14.914  0.0881  0.2926  0.0837
 7219UDC     C679404  17.720   1.767  15.060 -1.1643  0.4727  0.0884
 7219UDC     C779405  17.713   1.918  15.071  1.6104 -0.6697 -0.5701
 7219UDC     C879406  17.654   1.975  15.200  0.1886 -0.2968 -0.4028
 7219UDC     C979407  17.733   2.102  15.249 -1.0847 -0.0546  0.2973
 7219UDC    C1079408  17.884   2.086  15.265  0.1533  1.5048  0.0617
 7219UDC    C1179409  17.900   1.978  15.375  0.1713 -0.9448 -0.9899
 7220UDC     C179410   3.041   9.415  14.513  0.0579  1.0068 -0.5460
 7220UDC     C279411   2.892   9.411  14.470  0.2879 -0.5102  0.4380
 7220UDC     C379412   2.832   9.281  14.414  0.0297 -0.8167  0.1357
 7220UDC     C479413   2.687   9.303  14.373 -0.2248  0.0803 -0.2212
 7220UDC     C579414   2.592   9.377  14.469  0.1690  0.7785 -0.2008
 7220UDC     C679415   2.443   9.370  14.422 -0.1623 -0.9528 -0.5219
 7220UDC     C779416   2.360   9.442  14.529  1.2200 -0.7733  1.1993
 7220UDC     C879417   2.426   9.455  14.670  0.1704 -0.2867  0.5758
 7220UDC     C979418   2.339   9.510  14.788 -0.0145  0.0779 -0.8763
 7220UDC    C1079419   2.439   9.565  14.893 -0.0030 -0.1836  0.5710
 7220UDC    C1179420   2.465   9.711  14.835 -0.5504  0.5680 -0.8624
 7221UDC     C179421  18.453   5.361  14.487  0.2766 -1.2510  0.4343
 7221UDC     C279422  18.404   5.293  14.619 -0.2973  0.0900  0.5156
 7221UDC     C379423  18.519   5.188  14.642 -0.1730  0.0356 -0.1977
 7221UDC     C479424  18.652   5.257  14.676 -0.5134  0.2558  0.9535
 7221UDC     C579425  18.757   5.160  14.743  0.3488  0.2830  0.0715
 7221UDC     C679426  18.784   5.034  14.652  0.5361  0.4587  0.1954
 7221UDC     C779427  18.896   4.944  14.713 -1.3528  0.5598  0.8628
 7221UDC     C879428  18.838   4.877  14.835  1.1792 -0.2115 -0.1112
 7221UDC     C979429  18.850   4.721  14.833  0.7356  0.8521 -0.0417
 7221UDC    C1079430  18.731   4.656  14.765  0.4360 -0.2292 -0.4110
 7221UDC    C1179431  18.756   4.502  14.730  0.5639 -1.4143  0.3927
 7222UDC     C179432  18.767   6.090  16.700  0.5878 -0.2309 -0.6452
 7222UDC     C279433  18.673   6.133  16.807  1.2108  0.1565  0.1479
 7222UDC     C379434  18.741   6.208  16.916 -0.5781 -0.6643  0.4493
 7222UDC     C479435  18.654   6.248  17.031 -0.4005 -0.3439  0.4644
 7222UDC     C579436  18.568   6.367  16.999  0.0616  0.9838  0.5652
 7222UDC     C679437  18.463   6.387  17.103 -0.5202  0.3627 -0.4726
 7222UDC     C779438  18.496   6.513  17.178 -0.9551  0.2013 -1.1038
 7222UDC     C879439  18.511   6.644  17.103  0.7519  0.9569 -0.0982
 7222UDC     C979440  18.562   6.769  17.178 -0.0685 -0.2678  0.0581
 7222UDC    C1079441  18.448   6.859  17.231 -0.6211 -0.8172  0.2835
 7222UDC    C1179442  18.490   6.998  17.279 -0.0243 -0.5422 -0.1708
 7223UDC     C179443   2.051  18.076  17.257 -0.2130  0.4820  0.0477
 7223UDC     C279444   2.016  17.935  17.217  0.2741 -0.1327 -0.0920
 7223UDC     C379445   1.920  17.926  17.090  0.0140 -0.4462 -0.4772
 7223UDC     C479446   1.804  18.024  17.087  0.5117 -0.9588  0.4347
 7223UDC     C579447   1.689  17.928  17.125 -0.3176 -0.0539  0.8042
 7223UDC     C679448   1.711  17.793  17.049 -0.5302  0.0410 -1.1602
 7223UDC     C779449   1.591  17.718  16.997 -0.1340 -0.2771  0.3209
 7223UDC     C879450   1.585  17.567  17.015 -1.0255 -0.0972  0.5966
 7223UDC     C979451   1.633  17.524  17.159  1.3963 -0.5738 -0.8133
 7223UDC    C1079452   1.564  17.401  17.194  0.9798 -0.1564  0.4922
 7223UDC    C1179453   1.618  17.290  17.108 -0.1082  0.0834  0.6730
 7224UDC     C179454  19.657  15.727   8.264  0.1441 -0.6889 -0.2802
 7224UDC     C279455  19.513  15.655   8.273 -0.2584  0.0046  0.6685
 7224UDC     C379456  19.408  15.727   8.366 -0.1387  1.0991  0.0108
 7224UDC     C479457  19.272  15.648   8.359  0.8725 -0.2477  0.6663
 7224UDC     C579458  19.279  15.505   8.398 -0.6090  0.1595  0.4875
 7224UDC     C679459  19.186  15.422   8.304  0.2808 -0.7547 -0.2633
 7224UDC     C779460  19.213  15.272   8.277  0.0429  0.5105  0.6955
 7224UDC     C879461  19.194  15.198   8.409 -0.3854  0.7043  1.4554
 7224UDC     C979462  19.178  15.043   8.404  0.6956  0.4121  0.7397
 7224UDC    C1079463  19.117  14.968   8.527  0.7624 -0.0436 -0.3883
 7224UDC    C1179464  19.122  14.817   8.509 -0.5557  0.7404 -1.2228
 7225UDC     C179465  16.258   2.446  16.594 -0.6328  0.0227  0.0037
 7225UDC     C279466  16.280   2.578  16.672 -0.2076 -0.1228  1.1668
 7225UDC     C379467  16.264   2.714  16.604 -0.2076 -0.0203  0.5946
 7225UDC     C479468  16.359   2.735  16.479  0.5829  0.2226 -0.2263
 7225UDC     C579469  16.426   2.864  16.451 -0.9985 -0.2545 -0.4346
 7225UDC     C679470  16.577   2.886  16.411  0.3410 -0.9453 -0.3058
 7225UDC     C779471  16.624   3.034  16.388  0.4295  0.0211 -0.6898
 7225UDC     C879472  16.774   3.050  16.354 -0.1450  0.2646 -0.5131
 7225UDC     C979473  16.790   3.197  16.304  0.4292  1.0302 -0.0434
 7225UDC    C1079474  16.740   3.191  16.158 -0.1316 -0.4332 -0.2622
 7225UDC    C1179475  16.790   3.313  16.068  0.2085  0.4629 -1.4458
 7226UDC     C179476  17.121  17.189   9.413  1.0003  0.5829 -1.0103
 7226UDC     C279477  17.155  17.298   9.524  0.5405 -0.0669 -0.1474
 7226UDC     C379478  17.220  17.425   9.469 -0.6889 -0.8418  0.6415
 7226UDC     C479479  17.113  17.522   9.417 -0.1815  1.4447  0.6275
 7226UDC     C579480  17.159  17.637   9.323 -0.7955  0.8183  0.1680
 7226UDC     C679481  17.048  17.725   9.263  0.5273  0.1894  1.2281
 7226UDC     C779482  17.073  17.856   9.182 -0.3586 -0.2498  0.3662
 7226UDC     C879483  16.946  17.933   9.146  0.2436  0.2380  0.4788
 7226UDC     C979484  16.952  18.094   9.163 -0.3061  1.3622  0.9097
 7226UDC    C1079485  16.978  18.146   9.304 -0.4989  0.0216 -0.0237
 7226UDC    C1179486  17.034  18.279   9.344  0.7949 -0.5840  0.1415
  20.00000  20.00000  20.00000
